LAMMPS data file via write_data, version 12 Dec 2018, timestep = 2950000

6440 atoms
100 atom types
6328 bonds
100 bond types
11810 angles
100 angle types
15564 dihedrals
100 dihedral types
7280 impropers
100 improper types

0.0000000000000000e+00 4.0735335049513701e+01 xlo xhi
0.0000000000000000e+00 4.0735335049513701e+01 ylo yhi
0.0000000000000000e+00 4.0735335049513701e+01 zlo zhi

Masses

1 12.0112
2 12.0112
3 12.0112
4 12.0112
5 12.0112
6 12.0112
7 12.0112
8 12.0112
9 12.011
10 1.00797
11 1.00797
12 14.0067
13 15.9994
14 15.9994
15 15.9994
16 15.9994
17 15.9994
18 1
19 1
20 1
21 1
22 1
23 1
24 1
25 1
26 1
27 1
28 1
29 1
30 1
31 1
32 1
33 1
34 1
35 1
36 1
37 1
38 1
39 1
40 1
41 1
42 1
43 1
44 1
45 1
46 1
47 1
48 1
49 1
50 1
51 1
52 1
53 1
54 1
55 1
56 1
57 1
58 1
59 1
60 1
61 1
62 1
63 1
64 1
65 1
66 1
67 1
68 1
69 1
70 1
71 1
72 1
73 1
74 1
75 1
76 1
77 1
78 1
79 1
80 1
81 1
82 1
83 1
84 1
85 1
86 1
87 1
88 1
89 1
90 6.941
91 12.0112
92 18.9984
93 14.0067
94 15.9994
95 32.065
96 1
97 1
98 1
99 1
100 1

Pair Coeffs # lj/class2/coul/long

1 0.035 3.75
2 0.0265 3.77
3 0.0634 3.7584
4 0.054 3.815
5 0.068 3.915
6 0.071 3.884
7 0.0688 3.8727
8 0.064 3.9
9 0.064 3.9
10 0.023 2.878
11 0.008 1.087
12 0.117 4.0222
13 0.192 3.43
14 0.096 3.45
15 0.12 3.3
16 0.086 3.3
17 0.086 3.3
18 0.1 3
19 0.1 3
20 0.1 3
21 0.1 3
22 0.1 3
23 0.1 3
24 0.1 3
25 0.1 3
26 0.1 3
27 0.1 3
28 0.1 3
29 0.1 3
30 0.1 3
31 0.1 3
32 0.1 3
33 0.1 3
34 0.1 3
35 0.1 3
36 0.1 3
37 0.1 3
38 0.1 3
39 0.1 3
40 0.1 3
41 0.1 3
42 0.1 3
43 0.1 3
44 0.1 3
45 0.1 3
46 0.1 3
47 0.1 3
48 0.1 3
49 0.1 3
50 0.1 3
51 0.1 3
52 0.1 3
53 0.1 3
54 0.1 3
55 0.1 3
56 0.1 3
57 0.1 3
58 0.1 3
59 0.1 3
60 0.1 3
61 0.1 3
62 0.1 3
63 0.1 3
64 0.1 3
65 0.1 3
66 0.1 3
67 0.1 3
68 0.1 3
69 0.1 3
70 0.1 3
71 0.1 3
72 0.1 3
73 0.1 3
74 0.1 3
75 0.1 3
76 0.1 3
77 0.1 3
78 0.1 3
79 0.1 3
80 0.1 3
81 0.1 3
82 0.1 3
83 0.1 3
84 0.1 3
85 0.1 3
86 0.1 3
87 0.1 3
88 0.1 3
89 0.1 3
90 0.3727 1.635
91 0.04 3.75
92 0.0488 3.421
93 0.1643 3.89
94 0.2029 3.5432
95 0.25 4.027
96 0.1 3
97 0.1 3
98 0.1 3
99 0.1 3
100 0.1 3

Bond Coeffs # class2

1 1.42 400.4 -835.2 1313
2 1.101 345 -691.89 844.6
3 1.42 400.4 -835.2 1313
4 1.53 299.67 -501.77 679.81
5 1.101 345 -691.89 844.6
6 1.53 299.67 -501.77 679.81
7 1.101 345 -691.89 844.6
8 1.53 299.67 -501.77 679.81
9 1.101 345 -691.89 844.6
10 1.101 345 -691.89 844.6
11 1.53 299.67 -501.77 679.81
12 1.457 365.81 -699.64 998.48
13 1.006 466.74 -1073.6 1251.1
14 1.53 299.67 -501.77 679.81
15 1.53 299.67 -501.77 679.81
16 1.4457 326.73 -608.53 689.03
17 1.101 345 -691.89 844.6
18 1.3398 391.33 -788.57 1212.4
19 1.1953 854.29 -1922.3 2301.7
20 1.4457 326.73 -608.53 689.03
21 1.53 299.67 -501.77 679.81
22 1.101 345 -691.89 844.6
23 1.43 326.73 -608.53 689.03
24 1.3683 367.15 -794.79 1055.2
25 1.4902 253.71 -423.04 396.9
26 1.202 851.14 -1918.5 2160.8
27 1 1 1 1
28 1 1 1 1
29 1 1 1 1
30 1 1 1 1
31 1 1 1 1
32 1 1 1 1
33 1 1 1 1
34 1 1 1 1
35 1 1 1 1
36 1 1 1 1
37 1 1 1 1
38 1 1 1 1
39 1 1 1 1
40 1 1 1 1
41 1 1 1 1
42 1 1 1 1
43 1 1 1 1
44 1 1 1 1
45 1 1 1 1
46 1 1 1 1
47 1 1 1 1
48 1 1 1 1
49 1 1 1 1
50 1 1 1 1
51 1 1 1 1
52 1 1 1 1
53 1 1 1 1
54 1 1 1 1
55 1 1 1 1
56 1 1 1 1
57 1 1 1 1
58 1 1 1 1
59 1 1 1 1
60 1 1 1 1
61 1 1 1 1
62 1 1 1 1
63 1 1 1 1
64 1 1 1 1
65 1 1 1 1
66 1 1 1 1
67 1 1 1 1
68 1 1 1 1
69 1 1 1 1
70 1 1 1 1
71 1 1 1 1
72 1 1 1 1
73 1 1 1 1
74 1 1 1 1
75 1 1 1 1
76 1 1 1 1
77 1 1 1 1
78 1 1 1 1
79 1 1 1 1
80 1 1 1 1
81 1 1 1 1
82 1 1 1 1
83 1 1 1 1
84 1 1 1 1
85 1 1 1 1
86 1 1 1 1
87 1 1 1 1
88 1 1 1 1
89 1 1 1 1
90 1 1 1 1
91 1.35 403.03 0 0
92 1.795 257.33 0 0
93 1.4308 743.76 0 0
94 1.5944 205.78 0 0
95 1 1 1 1
96 1 1 1 1
97 1 1 1 1
98 1 1 1 1
99 1 1 1 1
100 1 1 1 1

Angle Coeffs # class2

1 108.73 58.545 -10.809 -12.401
2 107.66 39.641 -12.921 -2.4318
3 104.5 35.745 -10.007 -6.2729
4 111.27 54.538 -8.3642 -13.084
5 108.73 58.545 -10.809 -12.401
6 110.77 41.453 -10.604 5.129
7 107.66 39.641 -12.921 -2.4318
8 112.67 39.516 -7.443 -9.5583
9 110.77 41.453 -10.604 5.129
10 110.77 41.453 -10.604 5.129
11 107.66 39.641 -12.921 -2.4318
12 112.67 39.516 -7.443 -9.5583
13 112.67 39.516 -7.443 -9.5583
14 110.77 41.453 -10.604 5.129
15 110.77 41.453 -10.604 5.129
16 110.77 41.453 -10.604 5.129
17 107.66 39.641 -12.921 -2.4318
18 112.67 39.516 -7.443 -9.5583
19 110.77 41.453 -10.604 5.129
20 111.91 60.715 -13.337 -13.079
21 110.62 51.314 -6.7198 -2.6003
22 112.44 47.234 -10.661 -10.206
23 110.95 50.865 -4.4522 -10.03
24 111.91 60.715 -13.337 -13.079
25 110.77 41.453 -10.604 5.129
26 112.67 39.516 -7.443 -9.5583
27 105.41 63.391 -13.451 0
28 110.77 41.453 -10.604 5.129
29 105.41 63.391 -13.451 0
30 110.77 41.453 -10.604 5.129
31 107.69 70.48 -10.35 0
32 110.77 41.453 -10.604 5.129
33 113.62 57.927 -17.131 60
34 120.05 97.378 -26.562 0
35 109.49 137.91 -39.876 59.077
36 113.62 57.927 -17.131 60
37 105.41 63.391 -13.451 0
38 107.69 70.48 -10.35 0
39 110.77 41.453 -10.604 5.129
40 107.66 39.641 -12.921 -2.4318
41 112.67 39.516 -7.443 -9.5583
42 110.77 41.453 -10.604 5.129
43 107.41 63.391 -13.451 1.665
44 107.41 63.391 -13.451 1.665
45 107.69 65.48 -10.35 5.8866
46 109.47 61.287 -28.979 7.9929
47 100.32 38.863 -3.8323 -7.9802
48 120.8 95.345 -32.287 6.3778
49 123.15 55.543 -17.212 0.1348
50 107.73 40.61 -28.812 0
51 100 50 0 0
52 100 50 0 0
53 100 50 0 0
54 100 50 0 0
55 100 50 0 0
56 100 50 0 0
57 100 50 0 0
58 100 50 0 0
59 100 50 0 0
60 100 50 0 0
61 100 50 0 0
62 100 50 0 0
63 100 50 0 0
64 100 50 0 0
65 100 50 0 0
66 100 50 0 0
67 100 50 0 0
68 100 50 0 0
69 100 50 0 0
70 100 50 0 0
71 100 50 0 0
72 100 50 0 0
73 100 50 0 0
74 100 50 0 0
75 100 50 0 0
76 100 50 0 0
77 100 50 0 0
78 100 50 0 0
79 100 50 0 0
80 100 50 0 0
81 100 50 0 0
82 100 50 0 0
83 100 50 0 0
84 100 50 0 0
85 100 50 0 0
86 100 50 0 0
87 100 50 0 0
88 100 50 0 0
89 100 50 0 0
90 100 50 0 0
91 109.1 71.97 0 0
92 109.5 60 0 0
93 109.5 50 0 0
94 109.5 50 0 0
95 119.33 135 0 0
96 109.5 50 0 0
97 120 50 0 0
98 100 50 0 0
99 100 50 0 0
100 100 50 0 0

BondBond Coeffs

1 23.198 1.101 1.42
2 5.3316 1.101 1.101
3 -7.1131 1.42 1.42
4 11.432 1.53 1.42
5 23.198 1.101 1.42
6 3.3872 1.53 1.101
7 5.3316 1.101 1.101
8 0 1.53 1.53
9 3.3872 1.53 1.101
10 3.3872 1.53 1.101
11 5.3316 1.101 1.101
12 0 1.53 1.53
13 0 1.53 1.53
14 3.3872 1.53 1.101
15 3.3872 1.53 1.101
16 3.3872 1.53 1.101
17 5.3316 1.101 1.101
18 0 1.53 1.53
19 3.3872 1.53 1.101
20 4.6217 1.53 1.457
21 12.426 1.101 1.457
22 -2.1113 1.457 1.457
23 -6.4168 1.457 1.006
24 4.6217 1.53 1.457
25 3.3872 1.53 1.101
26 0 1.53 1.53
27 23.265 1.53 1.4457
28 3.3872 1.53 1.101
29 23.265 1.53 1.4457
30 3.3872 1.53 1.101
31 5.6454 1.101 1.4457
32 3.3872 1.53 1.101
33 42.094 1.4457 1.3398
34 122.5 1.1953 1.3398
35 83.71 1.3398 1.3398
36 42.094 1.4457 1.3398
37 23.265 1.53 1.4457
38 5.6454 1.101 1.4457
39 3.3872 1.53 1.101
40 5.3316 1.101 1.101
41 0 1.53 1.53
42 3.3872 1.53 1.101
43 23.265 1.53 1.43
44 23.265 1.53 1.43
45 5.6454 1.101 1.43
46 45.45 1.43 1.3683
47 19.107 1.4902 1.3683
48 121.49 1.202 1.3683
49 46.069 1.4902 1.202
50 0.7115 1.4902 1.101
51 0 1 1
52 0 1 1
53 0 1 1
54 0 1 1
55 0 1 1
56 0 1 1
57 0 1 1
58 0 1 1
59 0 1 1
60 0 1 1
61 0 1 1
62 0 1 1
63 0 1 1
64 0 1 1
65 0 1 1
66 0 1 1
67 0 1 1
68 0 1 1
69 0 1 1
70 0 1 1
71 0 1 1
72 0 1 1
73 0 1 1
74 0 1 1
75 0 1 1
76 0 1 1
77 0 1 1
78 0 1 1
79 0 1 1
80 0 1 1
81 0 1 1
82 0 1 1
83 0 1 1
84 0 1 1
85 0 1 1
86 0 1 1
87 0 1 1
88 0 1 1
89 0 1 1
90 0 1 1
91 0 1.35 1.35
92 0 1.35 1.795
93 0 1.795 1.4308
94 0 1.795 1.5944
95 0 1.4308 1.4308
96 0 1.5944 1.4308
97 0 1.5944 1.5944
98 0 1 1
99 0 1 1
100 0 1 1

BondAngle Coeffs

1 4.6189 55.327 1.101 1.42
2 18.103 18.103 1.101 1.101
3 -2.8112 -2.8112 1.42 1.42
4 2.6868 20.403 1.53 1.42
5 4.6189 55.327 1.101 1.42
6 20.754 11.421 1.53 1.101
7 18.103 18.103 1.101 1.101
8 8.016 8.016 1.53 1.53
9 20.754 11.421 1.53 1.101
10 20.754 11.421 1.53 1.101
11 18.103 18.103 1.101 1.101
12 8.016 8.016 1.53 1.53
13 8.016 8.016 1.53 1.53
14 20.754 11.421 1.53 1.101
15 20.754 11.421 1.53 1.101
16 20.754 11.421 1.53 1.101
17 18.103 18.103 1.101 1.101
18 8.016 8.016 1.53 1.53
19 20.754 11.421 1.53 1.101
20 6.0876 16.57 1.53 1.457
21 13.458 42.433 1.101 1.457
22 -7.2229 -7.2229 1.457 1.457
23 31.81 20.58 1.457 1.006
24 6.0876 16.57 1.53 1.457
25 20.754 11.421 1.53 1.101
26 8.016 8.016 1.53 1.53
27 23.392 47.949 1.53 1.4457
28 20.754 11.421 1.53 1.101
29 23.392 47.949 1.53 1.4457
30 20.754 11.421 1.53 1.101
31 8.6864 57.498 1.101 1.4457
32 20.754 11.421 1.53 1.101
33 32.482 53.592 1.4457 1.3398
34 73.601 81.853 1.1953 1.3398
35 102.65 102.65 1.3398 1.3398
36 32.482 53.592 1.4457 1.3398
37 23.392 47.949 1.53 1.4457
38 8.6864 57.498 1.101 1.4457
39 20.754 11.421 1.53 1.101
40 18.103 18.103 1.101 1.101
41 8.016 8.016 1.53 1.53
42 20.754 11.421 1.53 1.101
43 23.392 47.949 1.53 1.43
44 23.392 47.949 1.53 1.43
45 8.6864 57.498 1.101 1.43
46 41.912 46.461 1.43 1.3683
47 1.3435 4.6978 1.4902 1.3683
48 76.261 71.876 1.202 1.3683
49 34.998 37.13 1.4902 1.202
50 12.463 9.1765 1.4902 1.101
51 0 0 1 1
52 0 0 1 1
53 0 0 1 1
54 0 0 1 1
55 0 0 1 1
56 0 0 1 1
57 0 0 1 1
58 0 0 1 1
59 0 0 1 1
60 0 0 1 1
61 0 0 1 1
62 0 0 1 1
63 0 0 1 1
64 0 0 1 1
65 0 0 1 1
66 0 0 1 1
67 0 0 1 1
68 0 0 1 1
69 0 0 1 1
70 0 0 1 1
71 0 0 1 1
72 0 0 1 1
73 0 0 1 1
74 0 0 1 1
75 0 0 1 1
76 0 0 1 1
77 0 0 1 1
78 0 0 1 1
79 0 0 1 1
80 0 0 1 1
81 0 0 1 1
82 0 0 1 1
83 0 0 1 1
84 0 0 1 1
85 0 0 1 1
86 0 0 1 1
87 0 0 1 1
88 0 0 1 1
89 0 0 1 1
90 0 0 1 1
91 0 0 1.35 1.35
92 0 0 1.35 1.795
93 0 0 1.795 1.4308
94 0 0 1.795 1.5944
95 0 0 1.4308 1.4308
96 0 0 1.5944 1.4308
97 0 0 1.5944 1.5944
98 0 0 1 1
99 0 0 1 1
100 0 0 1 1

Dihedral Coeffs # class2

1 0.5302 0 0 0 -0.3966 0
2 -0.5203 0 -0.3028 0 -0.345 0
3 0.5302 0 0 0 -0.3966 0
4 0.7137 0 0.266 0 -0.2545 0
5 -0.1435 0 0.253 0 -0.0905 0
6 0 0 0.0316 0 -0.1681 0
7 -0.1432 0 0.0617 0 -0.1083 0
8 0 0 0.0514 0 -0.143 0
9 0 0 0.0514 0 -0.143 0
10 0 0 0.0316 0 -0.1681 0
11 0 0 0.0316 0 -0.1681 0
12 0 0 0.0316 0 -0.1681 0
13 -0.1432 0 0.0617 0 -0.1083 0
14 0 0 0.0316 0 -0.1681 0
15 -0.1432 0 0.0617 0 -0.1083 0
16 0 0 0.0514 0 -0.143 0
17 0 0 0.0514 0 -0.143 0
18 0 0 0.0316 0 -0.1681 0
19 0.1764 0 0.1766 0 -0.5206 0
20 0 0 0.0316 0 -0.1681 0
21 -0.2428 0 0.4065 0 -0.3079 0
22 -0.1432 0 0.0617 0 -0.1083 0
23 -0.1406 0 0.4168 0 0.015 0
24 -1.1506 0 -0.6344 0 -0.1845 0
25 0.1904 0 -0.1342 0 -0.246 0
26 -0.5187 0 -0.4837 0 -0.1692 0
27 -0.1406 0 0.4168 0 0.015 0
28 -1.1506 0 -0.6344 0 -0.1845 0
29 0.1764 0 0.1766 0 -0.5206 0
30 0 0 0 0 0.158 0
31 -0.2428 0 0.4065 0 -0.3079 0
32 0 0 0.0316 0 -0.1681 0
33 -3.6896 0 0 0 0 0
34 -0.1432 0 0.0617 0 -0.1083 0
35 0 0 0.0316 0 -0.1681 0
36 -3.6896 0 0 0 0 0
37 -0.1432 0 0.0617 0 -0.1083 0
38 0 0 0 0 -0.1932 0
39 0 0 0 0 -0.1932 0
40 0 0 0 0 -0.1932 0
41 -4.2342 0 1.8099 0 0 0
42 -4.0149 0 1.8643 0 0 0
43 -4.0149 0 1.8643 0 0 0
44 -4.2342 0 1.8099 0 0 0
45 0 0 0 0 -0.1932 0
46 0 0 0 0 -0.1932 0
47 -3.6896 0 0 0 0 0
48 -3.6896 0 0 0 0 0
49 0 0 0.0316 0 -0.1681 0
50 -0.1432 0 0.0617 0 -0.1083 0
51 0 0 0.0514 0 -0.143 0
52 0 0 0.0514 0 -0.143 0
53 0 0 0.0316 0 -0.1681 0
54 0 0 0 0 0.158 0
55 0 0 0 0 -0.25 0
56 0 0 0 0 -0.25 0
57 0 0 0 0 -0.1932 0
58 0 0 0 0 -0.1932 0
59 0 0 0 0 -0.1932 0
60 -2.5594 0 2.2013 0 0.0325 0
61 0 0 2.2089 0 0 0
62 -0.6359 0 1.4807 0 -0.0438 0
63 -0.1804 0 0.0012 0 0.0371 0
64 0 0 0 0 0 0
65 0 0 0 0 0 0
66 0 0 0 0 0 0
67 0 0 0 0 0 0
68 0 0 0 0 0 0
69 0 0 0 0 0 0
70 0 0 0 0 0 0
71 0 0 0 0 0 0
72 0 0 0 0 0 0
73 0 0 0 0 0 0
74 0 0 0 0 0 0
75 0 0 0 0 0 0
76 0 0 0 0 0 0
77 0 0 0 0 0 0
78 0 0 0 0 0 0
79 0 0 0 0 0 0
80 0 0 0 0 0 0
81 0 0 0 0 0 0
82 0 0 0 0 0 0
83 0 0 0 0 0 0
84 0 0 0 0 0 0
85 0 0 0 0 0 0
86 0 0 0 0 0 0
87 0 0 0 0 0 0
88 0 0 0 0 0 0
89 0 0 0 0 0 0
90 0 0 0 0 0 0
91 0 0 0 0 0.1367 0
92 0 0 0 0 0.1367 0
93 0 0 0.5 0 0 0
94 0 0 0.5 0 0 0
95 0 0 0 0 0 0
96 0 0 0 0 0 0
97 0 0 0 0 0 0
98 0 0 0 0 0 0
99 0 0 0 0 0 0
100 0 0 0 0 0 0

AngleAngleTorsion Coeffs

1 -16.444 108.73 104.5
2 -19.006 111.27 104.5
3 -16.444 108.73 104.5
4 -29.042 112.67 111.27
5 -20.201 110.77 111.27
6 -16.164 112.67 110.77
7 -12.564 110.77 110.77
8 -22.045 112.67 112.67
9 -22.045 112.67 112.67
10 -16.164 110.77 112.67
11 -16.164 112.67 110.77
12 -16.164 112.67 110.77
13 -12.564 110.77 110.77
14 -16.164 112.67 110.77
15 -12.564 110.77 110.77
16 -22.045 112.67 112.67
17 -22.045 112.67 112.67
18 -16.164 110.77 112.67
19 -27.395 112.67 111.91
20 -16.164 112.67 110.77
21 -15.757 110.77 111.91
22 -12.564 110.77 110.77
23 -24.382 111.91 112.44
24 -7.5499 111.91 110.95
25 -12.557 110.62 112.44
26 -10.426 110.62 110.95
27 -24.382 111.91 112.44
28 -7.5499 111.91 110.95
29 -27.395 112.67 111.91
30 0 105.41 111.91
31 -15.757 110.77 111.91
32 -16.164 112.67 110.77
33 0 105.41 110.77
34 -12.564 110.77 110.77
35 -16.164 112.67 110.77
36 0 105.41 110.77
37 -12.564 110.77 110.77
38 0 105.41 113.62
39 0 105.41 113.62
40 0 107.69 113.62
41 0 120.05 113.62
42 0 109.49 113.62
43 0 109.49 113.62
44 0 120.05 113.62
45 0 105.41 113.62
46 0 107.69 113.62
47 0 112.67 105.41
48 0 110.77 105.41
49 -16.164 112.67 110.77
50 -12.564 110.77 110.77
51 -22.045 112.67 112.67
52 -22.045 112.67 112.67
53 -16.164 110.77 112.67
54 0 107.41 111.91
55 0 107.41 110.77
56 0 107.41 110.77
57 0 107.41 109.47
58 0 107.41 109.47
59 0 107.69 109.47
60 0 100.32 109.47
61 0 120.8 109.47
62 0 107.73 100.32
63 -15.35 107.73 123.15
64 0 100 100
65 0 100 100
66 0 100 100
67 0 100 100
68 0 100 100
69 0 100 100
70 0 100 100
71 0 100 100
72 0 100 100
73 0 100 100
74 0 100 100
75 0 100 100
76 0 100 100
77 0 100 100
78 0 100 100
79 0 100 100
80 0 100 100
81 0 100 100
82 0 100 100
83 0 100 100
84 0 100 100
85 0 100 100
86 0 100 100
87 0 100 100
88 0 100 100
89 0 100 100
90 0 100 100
91 0 109.5 109.5
92 0 109.5 109.5
93 0 120 109.5
94 0 120 109.5
95 0 100 100
96 0 100 100
97 0 100 100
98 0 100 100
99 0 100 100
100 0 100 100

EndBondTorsion Coeffs

1 -0.6054 1.3339 0.9648 -0.162 0.1564 -1.1408 1.101 1.42
2 -0.2456 1.0517 -0.7795 0.4741 1.2635 0.5576 1.53 1.42
3 -0.6054 1.3339 0.9648 -0.162 0.1564 -1.1408 1.101 1.42
4 -0.319 0.4411 -0.7174 1.1538 0.8409 -0.9138 1.53 1.42
5 0.9681 0.9551 0.0436 0.5903 0.6669 0.8584 1.101 1.42
6 0.2486 0.2422 -0.0925 0.0814 0.0591 0.2219 1.53 1.101
7 0.213 0.312 0.0777 0.213 0.312 0.0777 1.101 1.101
8 -0.0732 0 0 -0.0732 0 0 1.53 1.53
9 -0.0732 0 0 -0.0732 0 0 1.53 1.53
10 0.0814 0.0591 0.2219 0.2486 0.2422 -0.0925 1.101 1.53
11 0.2486 0.2422 -0.0925 0.0814 0.0591 0.2219 1.53 1.101
12 0.2486 0.2422 -0.0925 0.0814 0.0591 0.2219 1.53 1.101
13 0.213 0.312 0.0777 0.213 0.312 0.0777 1.101 1.101
14 0.2486 0.2422 -0.0925 0.0814 0.0591 0.2219 1.53 1.101
15 0.213 0.312 0.0777 0.213 0.312 0.0777 1.101 1.101
16 -0.0732 0 0 -0.0732 0 0 1.53 1.53
17 -0.0732 0 0 -0.0732 0 0 1.53 1.53
18 0.0814 0.0591 0.2219 0.2486 0.2422 -0.0925 1.101 1.53
19 0.1032 0.5896 -0.4836 0.0579 -0.0043 -0.1906 1.53 1.457
20 0.2486 0.2422 -0.0925 0.0814 0.0591 0.2219 1.53 1.101
21 0.196 0.7056 0.112 0.1022 0.209 0.6433 1.101 1.457
22 0.213 0.312 0.0777 0.213 0.312 0.0777 1.101 1.101
23 0.0997 -0.0046 -0.2657 -0.0128 -0.0495 -0.1079 1.53 1.457
24 -0.9466 0.9356 -0.5542 0.057 0.0625 0.4112 1.53 1.006
25 -0.5892 0.714 0.3505 0.0628 0.0873 -0.0882 1.101 1.457
26 -1.1685 0.9266 -0.0993 0.085 0.3061 0.2104 1.101 1.006
27 0.0997 -0.0046 -0.2657 -0.0128 -0.0495 -0.1079 1.53 1.457
28 -0.9466 0.9356 -0.5542 0.057 0.0625 0.4112 1.53 1.006
29 0.1032 0.5896 -0.4836 0.0579 -0.0043 -0.1906 1.53 1.457
30 0 0 0 0 0 0 1.4457 1.457
31 0.196 0.7056 0.112 0.1022 0.209 0.6433 1.101 1.457
32 0.2486 0.2422 -0.0925 0.0814 0.0591 0.2219 1.53 1.101
33 0 0 0 0 0 0 1.4457 1.101
34 0.213 0.312 0.0777 0.213 0.312 0.0777 1.101 1.101
35 0.2486 0.2422 -0.0925 0.0814 0.0591 0.2219 1.53 1.101
36 0 0 0 0 0 0 1.4457 1.101
37 0.213 0.312 0.0777 0.213 0.312 0.0777 1.101 1.101
38 0 0 0 0 0 0 1.53 1.3398
39 0 0 0 0 0 0 1.53 1.3398
40 0 0 0 0 0 0 1.101 1.3398
41 0 0 0 0 0 0 1.1953 1.4457
42 0 0 0 0 0 0 1.3398 1.4457
43 0 0 0 0 0 0 1.3398 1.4457
44 0 0 0 0 0 0 1.1953 1.4457
45 0 0 0 0 0 0 1.53 1.3398
46 0 0 0 0 0 0 1.101 1.3398
47 0 0 0 0 0 0 1.53 1.4457
48 0 0 0 0 0 0 1.101 1.4457
49 0.2486 0.2422 -0.0925 0.0814 0.0591 0.2219 1.53 1.101
50 0.213 0.312 0.0777 0.213 0.312 0.0777 1.101 1.101
51 -0.0732 0 0 -0.0732 0 0 1.53 1.53
52 -0.0732 0 0 -0.0732 0 0 1.53 1.53
53 0.0814 0.0591 0.2219 0.2486 0.2422 -0.0925 1.101 1.53
54 0 0 0 0 0 0 1.43 1.457
55 0 0 0 0 0 0 1.43 1.101
56 0 0 0 0 0 0 1.43 1.101
57 0 0 0 0 0 0 1.53 1.3683
58 0 0 0 0 0 0 1.53 1.3683
59 0 0 0 0 0 0 1.101 1.3683
60 0 0 0 0 0 0 1.4902 1.43
61 0 0 0 0 0 0 1.202 1.43
62 0 0 0 0 0 0 1.101 1.3683
63 1.2143 0.2831 0.3916 -0.2298 0.0354 0.3853 1.101 1.202
64 0 0 0 0 0 0 1 1
65 0 0 0 0 0 0 1 1
66 0 0 0 0 0 0 1 1
67 0 0 0 0 0 0 1 1
68 0 0 0 0 0 0 1 1
69 0 0 0 0 0 0 1 1
70 0 0 0 0 0 0 1 1
71 0 0 0 0 0 0 1 1
72 0 0 0 0 0 0 1 1
73 0 0 0 0 0 0 1 1
74 0 0 0 0 0 0 1 1
75 0 0 0 0 0 0 1 1
76 0 0 0 0 0 0 1 1
77 0 0 0 0 0 0 1 1
78 0 0 0 0 0 0 1 1
79 0 0 0 0 0 0 1 1
80 0 0 0 0 0 0 1 1
81 0 0 0 0 0 0 1 1
82 0 0 0 0 0 0 1 1
83 0 0 0 0 0 0 1 1
84 0 0 0 0 0 0 1 1
85 0 0 0 0 0 0 1 1
86 0 0 0 0 0 0 1 1
87 0 0 0 0 0 0 1 1
88 0 0 0 0 0 0 1 1
89 0 0 0 0 0 0 1 1
90 0 0 0 0 0 0 1 1
91 0 0 0 0 0 0 1.35 1.4308
92 0 0 0 0 0 0 1.35 1.5944
93 0 0 0 0 0 0 1.5944 1.795
94 0 0 0 0 0 0 1.5944 1.4308
95 0 0 0 0 0 0 1 1
96 0 0 0 0 0 0 1 1
97 0 0 0 0 0 0 1 1
98 0 0 0 0 0 0 1 1
99 0 0 0 0 0 0 1 1
100 0 0 0 0 0 0 1 1

MiddleBondTorsion Coeffs

1 -6.8007 -4.6546 -1.4101 1.42
2 -5.9288 -2.7007 -0.3175 1.42
3 -6.8007 -4.6546 -1.4101 1.42
4 -21.884 -7.6764 -0.6868 1.53
5 -16.797 -1.2296 -0.275 1.53
6 -14.879 -3.6581 -0.3138 1.53
7 -14.261 -0.5322 -0.4864 1.53
8 -17.787 -7.1877 0 1.53
9 -17.787 -7.1877 0 1.53
10 -14.879 -3.6581 -0.3138 1.53
11 -14.879 -3.6581 -0.3138 1.53
12 -14.879 -3.6581 -0.3138 1.53
13 -14.261 -0.5322 -0.4864 1.53
14 -14.879 -3.6581 -0.3138 1.53
15 -14.261 -0.5322 -0.4864 1.53
16 -17.787 -7.1877 0 1.53
17 -17.787 -7.1877 0 1.53
18 -14.879 -3.6581 -0.3138 1.53
19 -15.417 -7.3055 -1.0749 1.53
20 -14.879 -3.6581 -0.3138 1.53
21 -10.496 -0.7647 -0.0545 1.53
22 -14.261 -0.5322 -0.4864 1.53
23 -8.0036 -7.7321 -3.064 1.457
24 -2.2208 0.5479 -0.3527 1.457
25 -6.4529 -6.8122 -1.1632 1.457
26 -3.4611 1.6996 -0.6007 1.457
27 -8.0036 -7.7321 -3.064 1.457
28 -2.2208 0.5479 -0.3527 1.457
29 -15.417 -7.3055 -1.0749 1.53
30 0 0 0 1.53
31 -10.496 -0.7647 -0.0545 1.53
32 -14.879 -3.6581 -0.3138 1.53
33 0 0 0 1.53
34 -14.261 -0.5322 -0.4864 1.53
35 -14.879 -3.6581 -0.3138 1.53
36 0 0 0 1.53
37 -14.261 -0.5322 -0.4864 1.53
38 0 0 0 1.4457
39 0 0 0 1.4457
40 0 0 0 1.4457
41 0 4.6748 0 1.3398
42 0 6.4736 0 1.3398
43 0 6.4736 0 1.3398
44 0 4.6748 0 1.3398
45 0 0 0 1.4457
46 0 0 0 1.4457
47 0 0 0 1.53
48 0 0 0 1.53
49 -14.879 -3.6581 -0.3138 1.53
50 -14.261 -0.5322 -0.4864 1.53
51 -17.787 -7.1877 0 1.53
52 -17.787 -7.1877 0 1.53
53 -14.879 -3.6581 -0.3138 1.53
54 0 0 0 1.53
55 0 0 0 1.53
56 0 0 0 1.53
57 -5.435 0 0 1.43
58 -5.435 0 0 1.43
59 0 0 0 1.43
60 1.3445 3.5515 -4.9202 1.3683
61 4.26 0 0 1.3683
62 -13.769 -2.5959 1.1934 1.4902
63 0.2359 0.9139 0.9594 1.4902
64 0 0 0 1
65 0 0 0 1
66 0 0 0 1
67 0 0 0 1
68 0 0 0 1
69 0 0 0 1
70 0 0 0 1
71 0 0 0 1
72 0 0 0 1
73 0 0 0 1
74 0 0 0 1
75 0 0 0 1
76 0 0 0 1
77 0 0 0 1
78 0 0 0 1
79 0 0 0 1
80 0 0 0 1
81 0 0 0 1
82 0 0 0 1
83 0 0 0 1
84 0 0 0 1
85 0 0 0 1
86 0 0 0 1
87 0 0 0 1
88 0 0 0 1
89 0 0 0 1
90 0 0 0 1
91 0 0 0 1.795
92 0 0 0 1.795
93 0 0 0 1.5944
94 0 0 0 1.5944
95 0 0 0 1
96 0 0 0 1
97 0 0 0 1
98 0 0 0 1
99 0 0 0 1
100 0 0 0 1

BondBond13 Coeffs

1 0 1.101 1.42
2 0 1.53 1.42
3 0 1.101 1.42
4 0 1.53 1.42
5 0 1.101 1.42
6 0 1.53 1.101
7 0 1.101 1.101
8 0 1.53 1.53
9 0 1.53 1.53
10 0 1.101 1.53
11 0 1.53 1.101
12 0 1.53 1.101
13 0 1.101 1.101
14 0 1.53 1.101
15 0 1.101 1.101
16 0 1.53 1.53
17 0 1.53 1.53
18 0 1.101 1.53
19 0 1.53 1.457
20 0 1.53 1.101
21 0 1.101 1.457
22 0 1.101 1.101
23 0 1.53 1.457
24 0 1.53 1.006
25 0 1.101 1.457
26 0 1.101 1.006
27 0 1.53 1.457
28 0 1.53 1.006
29 0 1.53 1.457
30 0 1.4457 1.457
31 0 1.101 1.457
32 0 1.53 1.101
33 0 1.4457 1.101
34 0 1.101 1.101
35 0 1.53 1.101
36 0 1.4457 1.101
37 0 1.101 1.101
38 0 1.53 1.3398
39 0 1.53 1.3398
40 0 1.101 1.3398
41 0 1.1953 1.4457
42 0 1.3398 1.4457
43 0 1.3398 1.4457
44 0 1.1953 1.4457
45 0 1.53 1.3398
46 0 1.101 1.3398
47 0 1.53 1.4457
48 0 1.101 1.4457
49 0 1.53 1.101
50 0 1.101 1.101
51 0 1.53 1.53
52 0 1.53 1.53
53 0 1.101 1.53
54 0 1.43 1.457
55 0 1.43 1.101
56 0 1.43 1.101
57 0 1.53 1.3683
58 0 1.53 1.3683
59 0 1.101 1.3683
60 0 1.4902 1.43
61 0 1.202 1.43
62 0 1.101 1.3683
63 0 1.101 1.202
64 0 1 1
65 0 1 1
66 0 1 1
67 0 1 1
68 0 1 1
69 0 1 1
70 0 1 1
71 0 1 1
72 0 1 1
73 0 1 1
74 0 1 1
75 0 1 1
76 0 1 1
77 0 1 1
78 0 1 1
79 0 1 1
80 0 1 1
81 0 1 1
82 0 1 1
83 0 1 1
84 0 1 1
85 0 1 1
86 0 1 1
87 0 1 1
88 0 1 1
89 0 1 1
90 0 1 1
91 0 1.35 1.4308
92 0 1.35 1.5944
93 0 1.5944 1.795
94 0 1.5944 1.4308
95 0 1 1
96 0 1 1
97 0 1 1
98 0 1 1
99 0 1 1
100 0 1 1

AngleTorsion Coeffs

1 -1.8234 1.6393 0.5144 -0.7777 0.434 -0.6653 108.73 104.5
2 -2.7466 1.4877 -0.8955 0.5676 0.945 0.0703 111.27 104.5
3 -1.8234 1.6393 0.5144 -0.7777 0.434 -0.6653 108.73 104.5
4 0.5623 -0.3041 -0.4015 0.9672 -0.7566 -1.2331 112.67 111.27
5 2.3668 2.492 -1.0122 -0.1892 0.4918 0.7273 110.77 111.27
6 -0.2454 0 -0.1136 0.3113 0.4516 -0.1988 112.67 110.77
7 -0.8085 0.5569 -0.2466 -0.8085 0.5569 -0.2466 110.77 110.77
8 0.3886 -0.3139 0.1389 0.3886 -0.3139 0.1389 112.67 112.67
9 0.3886 -0.3139 0.1389 0.3886 -0.3139 0.1389 112.67 112.67
10 0.3113 0.4516 -0.1988 -0.2454 0 -0.1136 110.77 112.67
11 -0.2454 0 -0.1136 0.3113 0.4516 -0.1988 112.67 110.77
12 -0.2454 0 -0.1136 0.3113 0.4516 -0.1988 112.67 110.77
13 -0.8085 0.5569 -0.2466 -0.8085 0.5569 -0.2466 110.77 110.77
14 -0.2454 0 -0.1136 0.3113 0.4516 -0.1988 112.67 110.77
15 -0.8085 0.5569 -0.2466 -0.8085 0.5569 -0.2466 110.77 110.77
16 0.3886 -0.3139 0.1389 0.3886 -0.3139 0.1389 112.67 112.67
17 0.3886 -0.3139 0.1389 0.3886 -0.3139 0.1389 112.67 112.67
18 0.3113 0.4516 -0.1988 -0.2454 0 -0.1136 110.77 112.67
19 -1.9225 -1.345 0.221 2.0125 0.944 -2.7612 112.67 111.91
20 -0.2454 0 -0.1136 0.3113 0.4516 -0.1988 112.67 110.77
21 0.5111 1.6328 -1.0155 -1.1075 0.282 0.8318 110.77 111.91
22 -0.8085 0.5569 -0.2466 -0.8085 0.5569 -0.2466 110.77 110.77
23 -2.7883 1.5193 1.4796 1.2031 1.3645 -0.7071 111.91 112.44
24 -3.343 4.4558 -0.0346 0.2873 -0.8072 -0.096 111.91 110.95
25 -2.6321 0.9353 -0.8398 -1.3582 0.1465 -0.5729 110.62 112.44
26 -3.9582 2.0063 0.3213 -0.4294 -0.4442 -0.6141 110.62 110.95
27 -2.7883 1.5193 1.4796 1.2031 1.3645 -0.7071 111.91 112.44
28 -3.343 4.4558 -0.0346 0.2873 -0.8072 -0.096 111.91 110.95
29 -1.9225 -1.345 0.221 2.0125 0.944 -2.7612 112.67 111.91
30 0 0 0 0 0 0 105.41 111.91
31 0.5111 1.6328 -1.0155 -1.1075 0.282 0.8318 110.77 111.91
32 -0.2454 0 -0.1136 0.3113 0.4516 -0.1988 112.67 110.77
33 0 0 0 0 0 0 105.41 110.77
34 -0.8085 0.5569 -0.2466 -0.8085 0.5569 -0.2466 110.77 110.77
35 -0.2454 0 -0.1136 0.3113 0.4516 -0.1988 112.67 110.77
36 0 0 0 0 0 0 105.41 110.77
37 -0.8085 0.5569 -0.2466 -0.8085 0.5569 -0.2466 110.77 110.77
38 0 0 0 0 0 0 105.41 113.62
39 0 0 0 0 0 0 105.41 113.62
40 0 0 0 0 0 0 107.69 113.62
41 0 0 0 0 0 0 120.05 113.62
42 0 0 0 0 0 0 109.49 113.62
43 0 0 0 0 0 0 109.49 113.62
44 0 0 0 0 0 0 120.05 113.62
45 0 0 0 0 0 0 105.41 113.62
46 0 0 0 0 0 0 107.69 113.62
47 0 0 0 0 0 0 112.67 105.41
48 0 0 0 0 0 0 110.77 105.41
49 -0.2454 0 -0.1136 0.3113 0.4516 -0.1988 112.67 110.77
50 -0.8085 0.5569 -0.2466 -0.8085 0.5569 -0.2466 110.77 110.77
51 0.3886 -0.3139 0.1389 0.3886 -0.3139 0.1389 112.67 112.67
52 0.3886 -0.3139 0.1389 0.3886 -0.3139 0.1389 112.67 112.67
53 0.3113 0.4516 -0.1988 -0.2454 0 -0.1136 110.77 112.67
54 0 0 0 0 0 0 107.41 111.91
55 0 0 0 0 0 0 107.41 110.77
56 0 0 0 0 0 0 107.41 110.77
57 0 0 0 0 0 0 107.41 109.47
58 0 0 0 0 0 0 107.41 109.47
59 0 0 0 0 0 0 107.69 109.47
60 0 0 0 0 0 0 100.32 109.47
61 0 0 0 0 0 0 120.8 109.47
62 0 0 0 0 0 0 107.73 100.32
63 9.1299 -0.4847 0.3582 -1.4946 0.7308 -0.2083 107.73 123.15
64 0 0 0 0 0 0 100 100
65 0 0 0 0 0 0 100 100
66 0 0 0 0 0 0 100 100
67 0 0 0 0 0 0 100 100
68 0 0 0 0 0 0 100 100
69 0 0 0 0 0 0 100 100
70 0 0 0 0 0 0 100 100
71 0 0 0 0 0 0 100 100
72 0 0 0 0 0 0 100 100
73 0 0 0 0 0 0 100 100
74 0 0 0 0 0 0 100 100
75 0 0 0 0 0 0 100 100
76 0 0 0 0 0 0 100 100
77 0 0 0 0 0 0 100 100
78 0 0 0 0 0 0 100 100
79 0 0 0 0 0 0 100 100
80 0 0 0 0 0 0 100 100
81 0 0 0 0 0 0 100 100
82 0 0 0 0 0 0 100 100
83 0 0 0 0 0 0 100 100
84 0 0 0 0 0 0 100 100
85 0 0 0 0 0 0 100 100
86 0 0 0 0 0 0 100 100
87 0 0 0 0 0 0 100 100
88 0 0 0 0 0 0 100 100
89 0 0 0 0 0 0 100 100
90 0 0 0 0 0 0 100 100
91 0 0 0 0 0 0 109.5 109.5
92 0 0 0 0 0 0 109.5 109.5
93 0 0 0 0 0 0 120 109.5
94 0 0 0 0 0 0 120 109.5
95 0 0 0 0 0 0 100 100
96 0 0 0 0 0 0 100 100
97 0 0 0 0 0 0 100 100
98 0 0 0 0 0 0 100 100
99 0 0 0 0 0 0 100 100
100 0 0 0 0 0 0 100 100

Improper Coeffs # class2

1 0 0
2 0 0
3 0 0
4 0 0
5 0 0
6 0 0
7 0 0
8 0 0
9 0 0
10 0 0
11 0 0
12 0 0
13 0 0
14 0 0
15 0 0
16 0 0
17 0 0
18 0 0
19 0 0
20 0 0
21 0 0
22 0 0
23 0 0
24 0 0
25 0 0
26 51.637 0
27 0 0
28 0 0
29 0 0
30 0 0
31 0 0
32 0 0
33 0 0
34 0 0
35 46.926 0
36 0 0
37 0 0
38 0 0
39 0 0
40 0 0
41 0 0
42 0 0
43 0 0
44 0 0
45 0 0
46 0 0
47 0 0
48 0 0
49 0 0
50 0 0
51 0 0
52 0 0
53 0 0
54 0 0
55 0 0
56 0 0
57 0 0
58 0 0
59 0 0
60 0 0
61 0 0
62 0 0
63 0 0
64 0 0
65 0 0
66 0 0
67 0 0
68 0 0
69 0 0
70 0 0
71 0 0
72 0 0
73 0 0
74 0 0
75 0 0
76 0 0
77 0 0
78 0 0
79 0 0
80 0 0
81 0 0
82 0 0
83 0 0
84 0 0
85 0 0
86 0 0
87 0 0
88 0 0
89 0 0
90 0 0
91 0 0
92 0 0
93 0 0
94 0 0
95 0 0
96 0 0
97 0 0
98 0 0
99 0 0
100 0 0

AngleAngle Coeffs

1 2.4259 2.4259 2.1283 107.66 108.73 108.73
2 -0.3157 -0.3157 -0.3157 107.66 107.66 107.66
3 3.9177 2.5926 0.1689 110.77 111.27 108.73
4 2.4259 2.4259 2.1283 107.66 108.73 108.73
5 0.2738 -0.4825 0.2738 110.77 110.77 107.66
6 -1.3199 -1.3199 0.1184 112.67 110.77 110.77
7 0.2738 -0.4825 0.2738 110.77 110.77 107.66
8 0.2738 -0.4825 0.2738 110.77 110.77 107.66
9 -0.1729 -0.1729 -0.1729 112.67 112.67 112.67
10 -1.3199 -1.3199 0.1184 112.67 110.77 110.77
11 -1.3199 -1.3199 0.1184 112.67 110.77 110.77
12 0.2738 -0.4825 0.2738 110.77 110.77 107.66
13 -0.3157 -0.3157 -0.3157 107.66 107.66 107.66
14 -1.3199 -1.3199 0.1184 112.67 110.77 110.77
15 0.2738 -0.4825 0.2738 110.77 110.77 107.66
16 2.4286 0.5381 -2.5301 110.77 111.91 110.62
17 2.4321 2.4321 -3.5496 107.66 110.62 110.62
18 -10.129 -10.129 -1.6152 112.44 110.95 110.95
19 2.4286 0.5381 -2.5301 110.77 111.91 110.62
20 0.2738 -0.4825 0.2738 110.77 110.77 107.66
21 0 0 0 120 120 120
22 -1.3199 -1.3199 0.1184 112.67 110.77 110.77
23 0 0 0 120 120 120
24 0 0 0 120 120 120
25 0.2738 -0.4825 0.2738 110.77 110.77 107.66
26 0 0 0 120 120 120
27 0 0 0 120 120 120
28 0 0 0 120 120 120
29 0.2738 -0.4825 0.2738 110.77 110.77 107.66
30 -1.3199 -1.3199 0.1184 112.67 110.77 110.77
31 0.2738 -0.4825 0.2738 110.77 110.77 107.66
32 0 0 0 120 120 120
33 0 0 0 120 120 120
34 0 0 0 120 120 120
35 0 0 0 120 120 120
36 -3.3867 -3.4976 -3.3867 107.73 107.73 107.66
37 0 0 0 100 100 100
38 0 0 0 100 100 100
39 0 0 0 100 100 100
40 0 0 0 100 100 100
41 0 0 0 100 100 100
42 0 0 0 100 100 100
43 0 0 0 100 100 100
44 0 0 0 100 100 100
45 0 0 0 100 100 100
46 0 0 0 100 100 100
47 0 0 0 100 100 100
48 0 0 0 100 100 100
49 0 0 0 100 100 100
50 0 0 0 100 100 100
51 0 0 0 100 100 100
52 0 0 0 100 100 100
53 0 0 0 100 100 100
54 0 0 0 100 100 100
55 0 0 0 100 100 100
56 0 0 0 100 100 100
57 0 0 0 100 100 100
58 0 0 0 100 100 100
59 0 0 0 100 100 100
60 0 0 0 100 100 100
61 0 0 0 100 100 100
62 0 0 0 100 100 100
63 0 0 0 100 100 100
64 0 0 0 100 100 100
65 0 0 0 100 100 100
66 0 0 0 100 100 100
67 0 0 0 100 100 100
68 0 0 0 100 100 100
69 0 0 0 100 100 100
70 0 0 0 100 100 100
71 0 0 0 100 100 100
72 0 0 0 100 100 100
73 0 0 0 100 100 100
74 0 0 0 100 100 100
75 0 0 0 100 100 100
76 0 0 0 100 100 100
77 0 0 0 100 100 100
78 0 0 0 100 100 100
79 0 0 0 100 100 100
80 0 0 0 100 100 100
81 0 0 0 100 100 100
82 0 0 0 100 100 100
83 0 0 0 100 100 100
84 0 0 0 100 100 100
85 0 0 0 100 100 100
86 0 0 0 100 100 100
87 0 0 0 100 100 100
88 0 0 0 100 100 100
89 0 0 0 100 100 100
90 0 0 0 100 100 100
91 0 0 0 120 120 120
92 0 0 0 120 120 120
93 0 0 0 120 120 120
94 0 0 0 120 120 120
95 0 0 0 120 120 120
96 0 0 0 100 100 100
97 0 0 0 100 100 100
98 0 0 0 100 100 100
99 0 0 0 100 100 100
100 0 0 0 100 100 100

Atoms # full

3012 7 3 7.3999999999999996e-02 3.9858549632753566e+00 5.9232346227739461e+00 7.2574271531762369e+00 0 0 1
3282 7 10 5.2999999999999999e-02 4.9100963249942353e+00 5.6139400483766693e+00 7.7742537426900782e+00 0 0 1
3011 7 12 -7.1999999999999997e-01 4.3120472917634922e+00 6.9522830218984790e+00 6.2457073138066406e+00 0 0 1
3010 7 3 7.3999999999999996e-02 5.2796847149452795e+00 6.5952190824030481e+00 5.1907165017782608e+00 0 0 1
3281 7 11 3.5999999999999999e-01 4.5770329119587503e+00 7.8212930407476629e+00 6.6805618821673090e+00 0 0 1
3009 7 3 -1.0600000000000000e-01 5.2462832402403263e+00 7.6271899054227692e+00 4.1316620423866537e+00 0 0 1
3279 7 10 5.2999999999999999e-02 4.9128300140962287e+00 5.6232525326095892e+00 4.8355488719825219e+00 0 0 1
3283 7 10 5.2999999999999999e-02 3.7556419708336968e+00 5.0287716907006406e+00 6.6968064594554599e+00 0 0 1
3280 7 10 5.2999999999999999e-02 6.2972016663523922e+00 6.4694254941614364e+00 5.6524546801570059e+00 0 0 1
3277 7 10 5.2999999999999999e-02 4.2253402436809360e+00 7.9206538477380404e+00 3.8330202116099801e+00 0 0 1
3284 7 10 5.2999999999999999e-02 2.0937862528164142e+00 6.9731023276554538e+00 7.6052306969763555e+00 0 0 1
3013 7 2 1.0700000000000000e-01 2.8272262580064620e+00 6.3930660359918443e+00 8.1539852885583173e+00 0 0 1
870 2 10 5.2999999999999999e-02 2.6341536841122024e+00 5.6018065967426072e+00 3.7416521306904396e+00 1 0 1
616 2 6 -1.5900000000000000e-01 2.6964206343466728e+00 3.2184288189901675e+00 4.9665988509128507e+00 1 0 1
3008 7 6 -1.5900000000000000e-01 5.0737057927635494e+00 5.9841431189784400e+00 2.2149079805709690e+00 0 0 1