ITEM: TIMESTEP
0
ITEM: NUMBER OF ATOMS
6440
ITEM: BOX BOUNDS pp pp pp
0.0000000000000000e+00 4.0735335049513701e+01
0.0000000000000000e+00 4.0735335049513701e+01
0.0000000000000000e+00 4.0735335049513701e+01
ITEM: ATOMS id mol type mass q x y z ix iy iz 
1 1 7 12.0112 0.001 4.33447 30.6971 18.9263 0 -1 0 
2 1 15 15.9994 -0.32 4.29064 31.9681 19.4382 0 -1 0 
3 1 4 12.0112 0.054 5.61458 32.4522 19.6362 0 -1 0 
4 1 3 12.0112 -0.106 5.54095 34.0276 19.6673 0 -1 0 
5 1 1 12.0112 -0.053 4.84802 34.5064 18.3666 0 -1 0 
6 1 6 12.0112 -0.159 5.87796 34.7473 17.3033 0 -1 0 
7 1 3 12.0112 -0.106 3.7947 35.627 18.4695 0 -1 0 
8 1 3 12.0112 0.074 3.29697 36.0922 17.0741 0 -1 0 
9 1 12 14.0067 -0.72 2.127 36.9539 17.2163 0 -1 0 
10 1 3 12.0112 0.074 0.746335 36.4454 17.132 0 -1 0 
11 1 2 12.0112 -0.003 0.0640726 37.2136 15.9859 0 -1 0 
12 1 6 12.0112 -0.159 39.2412 36.9571 15.9826 -1 -1 0 
13 1 17 15.9994 -0.27 0.0665655 38.6521 16.4315 0 -1 0 
14 1 9 12.011 1.07 1.0351 39.4531 16.1042 0 -1 0 
15 1 16 15.9994 -0.63 1.73918 39.3216 15.1035 0 -1 0 
16 1 17 15.9994 -0.27 1.17012 40.3543 17.0405 0 -1 0 
17 1 5 12.0112 -0.056 1.80106 0.85966 16.7431 0 0 0 
18 1 3 12.0112 -0.106 0.715019 1.84936 16.4014 0 0 0 
19 1 1 12.0112 -0.053 1.21681 3.03793 15.5145 0 0 0 
20 1 6 12.0112 -0.159 0.143497 4.09964 15.3887 0 0 0 
21 1 3 12.0112 -0.106 2.62027 3.48452 16.0719 0 0 0 
22 1 3 12.0112 0.074 3.37933 4.55875 15.2112 0 0 0 
23 1 12 14.0067 -0.72 3.7468 3.96034 13.9424 0 0 0 
24 1 3 12.0112 0.074 4.65065 4.7194 13.0953 0 0 0 
25 1 2 12.0112 -0.003 5.13732 3.99486 11.8826 0 0 0 
26 1 6 12.0112 -0.159 6.34584 4.68353 11.1949 0 0 0 
27 1 17 15.9994 -0.27 5.42345 2.61307 12.0917 0 0 0 
28 1 9 12.011 1.07 6.36525 2.10577 12.8389 0 0 0 
29 1 16 15.9994 -0.63 6.54095 0.927481 12.8064 0 0 0 
30 1 17 15.9994 -0.27 7.03126 3.0083 13.5144 0 0 0 
31 1 5 12.0112 -0.056 8.38556 2.6435 13.9261 0 0 0 
32 1 3 12.0112 -0.106 9.41211 2.89682 12.82 0 0 0 
33 1 1 12.0112 -0.053 10.8033 3.26488 13.4483 0 0 0 
34 1 6 12.0112 -0.159 11.6823 3.56753 12.3071 0 0 0 
35 1 3 12.0112 -0.106 11.2634 2.08298 14.1976 0 0 0 
36 1 3 12.0112 0.074 12.539 2.37573 15.1472 0 0 0 
37 1 12 14.0067 -0.72 13.2048 1.24036 15.7033 0 0 0 
38 1 3 12.0112 0.074 13.9859 1.44823 16.9067 0 0 0 
39 1 2 12.0112 -0.003 13.7412 0.357948 18.066 0 0 0 
40 1 6 12.0112 -0.159 14.4776 0.506439 19.4136 0 0 0 
41 1 17 15.9994 -0.27 14.0895 39.8749 17.4779 0 -1 0 
42 1 9 12.011 1.07 13.1832 39.2549 16.7412 0 -1 0 
43 1 16 15.9994 -0.63 12.0393 39.6293 16.6111 0 -1 0 
44 1 17 15.9994 -0.27 13.6954 38.1616 16.163 0 -1 0 
45 1 5 12.0112 -0.056 12.9918 37.6759 14.9943 0 -1 0 
46 1 3 12.0112 -0.106 13.3429 36.2369 14.9485 0 -1 0 
47 1 1 12.0112 -0.053 12.7178 35.5193 13.769 0 -1 0 
48 1 6 12.0112 -0.159 12.9881 36.2531 12.4782 0 -1 0 
49 1 3 12.0112 -0.106 13.1345 34.096 13.8482 0 -1 0 
50 1 3 12.0112 0.074 12.4521 33.1166 12.8825 0 -1 0 
51 1 12 14.0067 -0.72 12.5865 31.8074 13.4948 0 -1 0 
52 1 3 12.0112 0.074 11.7217 30.7581 12.8147 0 -1 0 
53 1 2 12.0112 -0.003 11.9901 29.2962 13.2101 0 -1 0 
54 1 6 12.0112 -0.159 13.4099 28.59 13.002 0 -1 0 
55 1 17 15.9994 -0.27 11.4396 29.2053 14.6057 0 -1 0 
56 1 9 12.011 1.07 11.2399 28.009 15.1811 0 -1 0 
57 1 16 15.9994 -0.63 11.2224 27.8465 16.3667 0 -1 0 
58 1 17 15.9994 -0.27 10.9586 27.0717 14.3148 0 -1 0 
59 1 5 12.0112 -0.056 10.6291 25.7079 14.7034 0 -1 0 
60 1 3 12.0112 -0.106 9.12651 25.7796 15.1845 0 -1 0 
61 1 1 12.0112 -0.053 8.56623 25.1337 16.4117 0 -1 0 
62 1 6 12.0112 -0.159 8.91141 23.6549 16.5211 0 -1 0 
63 1 3 12.0112 -0.106 9.05707 25.876 17.6688 0 -1 0 
64 1 3 12.0112 0.074 8.3588 27.2513 17.8784 0 -1 0 
65 1 12 14.0067 -0.72 9.1186 27.9936 18.8987 0 -1 0 
66 1 3 12.0112 0.074 9.03051 27.3615 20.2126 0 -1 0 
67 1 2 12.0112 -0.003 9.93151 28.002 21.2913 0 -1 0 
68 1 6 12.0112 -0.159 9.9259 27.2771 22.6592 0 -1 0 
69 1 17 15.9994 -0.27 9.42023 29.306 21.5164 0 -1 0 
70 1 9 12.011 1.07 10.2462 30.2494 21.9018 0 -1 0 
71 1 16 15.9994 -0.63 9.95665 31.404 21.9732 0 -1 0 
72 1 17 15.9994 -0.27 11.4628 29.857 22.1115 0 -1 0 
73 1 5 12.0112 -0.056 12.4774 30.7372 22.656 0 -1 0 
74 1 3 12.0112 -0.106 12.3529 30.502 24.1956 0 -1 0 
75 1 1 12.0112 -0.053 13.2317 31.592 24.9749 0 -1 0 
76 1 6 12.0112 -0.159 14.7065 31.7284 24.3875 0 -1 0 
77 1 3 12.0112 -0.106 13.2317 31.2561 26.4682 0 -1 0 
78 1 3 12.0112 0.074 11.8917 31.3568 27.2092 0 -1 0 
79 1 12 14.0067 -0.72 11.3564 32.7262 26.9566 0 -1 0 
80 1 3 12.0112 0.074 10.0397 33.001 27.5924 0 -1 0 
81 1 2 12.0112 -0.003 8.87114 32.8511 26.6767 0 -1 0 
82 1 6 12.0112 -0.159 8.24425 31.4072 26.7236 0 -1 0 
83 1 17 15.9994 -0.27 9.1903 32.9243 25.2581 0 -1 0 
84 1 9 12.011 1.07 9.602 34.0523 24.708 0 -1 0 
85 1 16 15.9994 -0.63 9.99266 34.1492 23.5913 0 -1 0 
86 1 17 15.9994 -0.27 9.72791 35.0416 25.5565 0 -1 0 
87 1 5 12.0112 -0.056 9.65346 36.3791 25.0841 0 -1 0 
88 1 3 12.0112 -0.106 8.19656 36.822 25.1319 0 -1 0 
89 1 1 12.0112 -0.053 7.2898 36.5016 23.9236 0 -1 0 
90 1 6 12.0112 -0.159 6.95391 35.0771 23.7235 0 -1 0 
91 1 3 12.0112 -0.106 6.01166 37.4006 23.9017 0 -1 0 
92 1 3 12.0112 0.074 5.52952 38.0712 22.5656 0 -1 0 
93 1 12 14.0067 -0.72 4.22938 38.7288 22.7127 0 -1 0 
94 1 3 12.0112 0.074 3.82736 39.4089 21.4622 0 -1 0 
95 1 2 12.0112 -0.003 2.79351 40.5614 21.5522 0 -1 0 
96 1 6 12.0112 -0.159 2.69272 0.44119 20.1229 0 0 0 
97 1 17 15.9994 -0.27 3.14696 0.769156 22.5749 0 0 0 
98 1 9 12.011 1.07 3.05138 0.40533 23.8354 0 0 0 
99 1 16 15.9994 -0.63 2.22261 40.3815 24.2385 0 -1 0 
100 1 17 15.9994 -0.27 3.89982 1.03224 24.6196 0 0 0 
101 1 5 12.0112 -0.056 4.92813 1.80326 24.128 0 0 0 
102 1 3 12.0112 -0.106 6.08867 0.839212 23.9645 0 0 0 
103 1 1 12.0112 -0.053 7.47645 1.50974 24.2139 0 0 0 
104 1 6 12.0112 -0.159 8.48437 0.440909 24.603 0 0 0 
105 1 3 12.0112 -0.106 7.73759 2.73359 25.2197 0 0 0 
106 1 3 12.0112 0.074 7.53024 2.3512 26.7009 0 0 0 
107 1 12 14.0067 -0.72 8.07533 3.42385 27.5116 0 0 0 
108 1 3 12.0112 0.074 8.18308 3.08305 28.8914 0 0 0 
109 1 2 12.0112 -0.003 8.48071 4.19005 29.9105 0 0 0 
110 1 6 12.0112 -0.159 8.85998 3.52513 31.1795 0 0 0 
111 1 17 15.9994 -0.27 9.67434 5.03171 29.549 0 0 0 
112 1 9 12.011 1.07 9.52746 6.15597 28.896 0 0 0 
113 1 16 15.9994 -0.63 8.47222 6.3702 28.3285 0 0 0 
114 1 17 15.9994 -0.27 10.6196 6.78526 28.7513 0 0 0 
115 1 5 12.0112 -0.056 10.6157 8.08702 28.1231 0 0 0 
116 1 3 12.0112 -0.106 11.8532 8.86545 28.6431 0 0 0 
117 1 1 12.0112 -0.053 11.7939 10.3152 29.1064 0 0 0 
118 1 6 12.0112 -0.159 11.1379 10.4443 30.5596 0 0 0 
119 1 3 12.0112 -0.106 11.159 11.2158 28.0889 0 0 0 
120 1 3 12.0112 0.074 11.6763 11.1135 26.6404 0 0 0 
121 1 12 14.0067 -0.72 13.0692 11.741 26.6761 0 0 0 
122 1 3 12.0112 0.074 13.9891 11.6187 25.4674 0 0 0 
123 1 2 12.0112 -0.003 13.4807 12.4645 24.2318 0 0 0 
124 1 6 12.0112 -0.159 12.8309 11.5265 23.2101 0 0 0 
125 1 17 15.9994 -0.27 12.3514 13.3497 24.4582 0 0 0 
126 1 9 12.011 1.07 12.3909 14.3062 25.2782 0 0 0 
127 1 16 15.9994 -0.63 11.4531 15.0224 25.5108 0 0 0 
128 1 17 15.9994 -0.27 13.5723 14.4289 25.8596 0 0 0 
129 1 5 12.0112 -0.056 13.9929 15.5412 26.7029 0 0 0 
130 1 3 12.0112 -0.106 14.7141 16.5635 25.6817 0 0 0 
131 1 1 12.0112 -0.053 15.8329 15.9653 24.8695 0 0 0 
132 1 6 12.0112 -0.159 16.8423 15.2775 25.8139 0 0 0 
133 1 3 12.0112 -0.106 16.6068 17.0034 24.0932 0 0 0 
134 1 3 12.0112 0.074 15.8695 17.865 23.0682 0 0 0 
135 1 12 14.0067 -0.72 16.8378 18.7889 22.4588 0 0 0 
136 1 3 12.0112 0.074 16.0752 19.6933 21.5862 0 0 0 
137 1 2 12.0112 -0.003 16.9158 20.8012 20.9102 0 0 0 
138 1 6 12.0112 -0.159 16.1416 22.0196 20.4389 0 0 0 
139 1 17 15.9994 -0.27 17.8098 21.2622 21.882 0 0 0 
140 1 9 12.011 1.07 18.9804 20.8427 22.0977 0 0 0 
141 1 16 15.9994 -0.63 19.6745 21.1345 23.0345 0 0 0 
142 1 17 15.9994 -0.27 19.4145 20.0512 21.1502 0 0 0 
143 1 5 12.0112 -0.056 20.7153 19.456 21.2867 0 0 0 
144 1 3 12.0112 -0.106 20.8244 18.4072 22.4515 0 0 0 
145 1 1 12.0112 -0.053 22.1013 17.7403 22.809 0 0 0 
146 1 6 12.0112 -0.159 23.1934 18.8873 23.0116 0 0 0 
147 1 3 12.0112 -0.106 21.888 17.0275 24.1769 0 0 0 
148 1 3 12.0112 0.074 20.823 15.9668 24.2589 0 0 0 
149 1 12 14.0067 -0.72 21.0537 14.9004 23.2525 0 0 0 
150 1 3 12.0112 0.074 20.022 14.0192 22.7481 0 0 0 
151 1 2 12.0112 -0.003 20.6309 13.0418 21.6352 0 0 0 
152 1 6 12.0112 -0.159 19.5499 12.0639 21.2394 0 0 0 
153 1 17 15.9994 -0.27 20.8943 13.8046 20.4394 0 0 0 
154 1 9 12.011 1.07 22.0301 14.2857 20.1273 0 0 0 
155 1 16 15.9994 -0.63 23.042 13.9778 20.6463 0 0 0 
156 1 17 15.9994 -0.27 21.9167 15.1182 19.1047 0 0 0 
157 1 5 12.0112 -0.056 23.1897 15.6281 18.4898 0 0 0 
158 1 3 12.0112 -0.106 23.801 16.7209 19.427 0 0 0 
159 1 1 12.0112 -0.053 25.1632 17.4665 19.0559 0 0 0 
160 1 6 12.0112 -0.159 26.4172 16.5629 19.1142 0 0 0 
161 1 3 12.0112 -0.106 25.0716 17.8435 17.5847 0 0 0 
162 1 3 12.0112 0.074 25.9141 19.0206 17.1676 0 0 0 
163 1 12 14.0067 -0.72 25.3824 20.2902 17.6042 0 0 0 
164 1 3 12.0112 0.074 26.0558 21.4583 16.8747 0 0 0 
165 1 2 12.0112 -0.003 25.3637 22.8954 17.0684 0 0 0 
166 1 6 12.0112 -0.159 23.9242 23.0275 16.5306 0 0 0 
167 1 17 15.9994 -0.27 25.3223 23.189 18.4629 0 0 0 
168 1 9 12.011 1.07 26.2563 23.9619 18.9811 0 0 0 
169 1 16 15.9994 -0.63 27.2816 24.1723 18.3925 0 0 0 
170 1 17 15.9994 -0.27 25.9893 24.4013 20.1791 0 0 0 
171 1 5 12.0112 -0.056 24.6261 24.3239 20.7802 0 0 0 
172 1 3 12.0112 -0.106 24.3847 22.8138 20.994 0 0 0 
173 1 1 12.0112 -0.053 24.4085 22.4082 22.4953 0 0 0 
174 1 6 12.0112 -0.159 23.048 22.6441 23.1765 0 0 0 
175 1 3 12.0112 -0.106 25.6234 22.9039 23.1579 0 0 0 
176 1 3 12.0112 0.074 25.9957 22.2619 24.4724 0 0 0 
177 1 12 14.0067 -0.72 26.1238 20.801 24.3994 0 0 0 
178 1 3 12.0112 0.074 26.95 20.2545 25.5682 0 0 0 
179 1 2 12.0112 -0.003 27.1068 18.7783 25.6924 0 0 0 
180 1 6 12.0112 -0.159 25.9237 17.9656 26.314 0 0 0 
181 1 17 15.9994 -0.27 27.0825 18.3725 24.3115 0 0 0 
182 1 9 12.011 1.07 28.2864 18.5316 23.7112 0 0 0 
183 1 16 15.9994 -0.63 29.278 18.7953 24.298 0 0 0 
184 1 17 15.9994 -0.27 28.1514 18.2281 22.415 0 0 0 
185 1 5 12.0112 -0.056 29.3167 17.9446 21.6128 0 0 0 
186 1 3 12.0112 -0.106 29.8947 19.2611 21.1585 0 0 0 
187 1 1 12.0112 -0.053 29.1259 19.8343 19.9844 0 0 0 
188 1 6 12.0112 -0.159 29.454 18.9834 18.7685 0 0 0 
189 1 3 12.0112 -0.106 29.5669 21.2609 19.6335 0 0 0 
190 1 3 12.0112 0.074 29.1246 22.2995 20.6337 0 0 0 
191 1 12 14.0067 -0.72 29.5729 23.731 20.3716 0 0 0 
192 1 3 12.0112 0.074 29.2866 24.4319 21.5865 0 0 0 
193 1 2 12.0112 0.107 29.6942 25.9267 21.6546 0 0 0 
194 1 6 12.0112 -0.159 31.1818 26.0329 21.8195 0 0 0 
195 1 14 15.9994 -0.272 29.1747 26.7183 22.7249 0 0 0 
196 1 8 12.0112 0.562 27.9594 27.294 22.5614 0 0 0 
197 1 6 12.0112 -0.159 27.4064 27.6035 23.9187 0 0 0 
198 1 13 15.9994 -0.45 27.4596 27.5224 21.5331 0 0 0 
199 1 10 1.00797 0.053 4.50464 30.7146 17.8055 0 -1 0 
200 1 10 1.00797 0.053 3.38195 30.1698 19.0057 0 -1 0 
201 1 10 1.00797 0.053 5.11438 30.1489 19.5012 0 -1 0 
202 1 10 1.00797 0.053 5.88604 32.0325 20.5592 0 -1 0 
203 1 10 1.00797 0.053 6.25664 32.0528 18.7904 0 -1 0 
204 1 10 1.00797 0.053 4.97099 34.3124 20.5592 0 -1 0 
205 1 10 1.00797 0.053 6.51463 34.5053 20.034 0 -1 0 
206 1 10 1.00797 0.053 4.201 33.6856 18.0555 0 -1 0 
207 1 10 1.00797 0.053 5.4152 34.8978 16.3474 0 -1 0 
208 1 10 1.00797 0.053 6.42894 35.6679 17.6444 0 -1 0 
209 1 10 1.00797 0.053 6.53387 33.8138 17.2099 0 -1 0 
210 1 10 1.00797 0.053 2.9204 35.0901 18.9521 0 -1 0 
211 1 10 1.00797 0.053 4.0693 36.518 19.1419 0 -1 0 
212 1 10 1.00797 0.053 3.11368 35.3243 16.3187 0 -1 0 
213 1 10 1.00797 0.053 4.05009 36.6324 16.5422 0 -1 0 
214 1 11 1.00797 0.36 2.24611 37.4719 18.0262 0 -1 0 
215 1 10 1.00797 0.053 0.779619 35.3205 16.9583 0 -1 0 
216 1 10 1.00797 0.053 0.182385 36.7169 18.0581 0 -1 0 
217 1 10 1.00797 0.053 0.593124 37.1474 15.0091 0 -1 0 
218 1 10 1.00797 0.053 39.1289 35.9523 15.4532 -1 -1 0 
219 1 10 1.00797 0.053 38.9091 36.8971 16.9876 -1 -1 0 
220 1 10 1.00797 0.053 38.6738 37.7817 15.4629 -1 -1 0 
221 1 10 1.00797 0.053 2.35683 1.08098 17.6363 0 0 0 
222 1 10 1.00797 0.053 2.49423 0.738293 15.8607 0 0 0 
223 1 10 1.00797 0.053 0.11208 2.26013 17.2791 0 0 0 
224 1 10 1.00797 0.053 40.6599 1.31892 15.8429 -1 0 0 
225 1 10 1.00797 0.053 1.43689 2.7254 14.4868 0 0 0 
226 1 10 1.00797 0.053 39.9545 3.57461 15.2641 -1 0 0 
227 1 10 1.00797 0.053 0.0496592 4.80997 16.1837 0 0 0 
228 1 10 1.00797 0.053 0.299765 4.86747 14.5343 0 0 0 
229 1 10 1.00797 0.053 3.30968 2.66893 16.2201 0 0 0 
230 1 10 1.00797 0.053 2.46262 3.86072 17.0977 0 0 0 
231 1 10 1.00797 0.053 2.72232 5.45354 15.0242 0 0 0 
232 1 10 1.00797 0.053 4.29555 4.8994 15.6481 0 0 0 
233 1 11 1.00797 0.36 2.85973 3.75425 13.466 0 0 0 
234 1 10 1.00797 0.053 4.22437 5.69566 12.8395 0 0 0 
235 1 10 1.00797 0.053 5.46024 5.0071 13.713 0 0 0 
236 1 10 1.00797 0.053 4.33489 4.11529 11.1356 0 0 0 
237 1 10 1.00797 0.053 6.06269 5.65574 10.8066 0 0 0 
238 1 10 1.00797 0.053 7.13369 4.94304 11.928 0 0 0 
239 1 10 1.00797 0.053 6.86434 4.00953 10.5251 0 0 0 
240 1 10 1.00797 0.053 8.64548 3.1987 14.8023 0 0 0 
241 1 10 1.00797 0.053 8.45782 1.66957 14.3565 0 0 0 
242 1 10 1.00797 0.053 9.02855 3.63703 12.1631 0 0 0 
243 1 10 1.00797 0.053 9.53899 1.98647 12.2524 0 0 0 
244 1 10 1.00797 0.053 10.7022 4.19107 14.1046 0 0 0 
245 1 10 1.00797 0.053 11.9205 2.57883 11.791 0 0 0 
246 1 10 1.00797 0.053 12.5678 4.10154 12.6525 0 0 0 
247 1 10 1.00797 0.053 11.2148 4.31255 11.5405 0 0 0 
248 1 10 1.00797 0.053 10.5111 1.71385 14.9432 0 0 0 
249 1 10 1.00797 0.053 11.3293 1.2191 13.5887 0 0 0 
250 1 10 1.00797 0.053 13.1382 3.14332 14.6028 0 0 0 
251 1 10 1.00797 0.053 12.0672 3.01248 15.9264 0 0 0 
252 1 11 1.00797 0.36 13.7177 0.796196 14.9136 0 0 0 
253 1 10 1.00797 0.053 15.0292 1.61088 16.7506 0 0 0 
254 1 10 1.00797 0.053 13.632 2.38436 17.3708 0 0 0 
255 1 10 1.00797 0.053 12.7063 0.29509 18.2747 0 0 0 
256 1 10 1.00797 0.053 15.6075 0.600486 19.1614 0 0 0 
257 1 10 1.00797 0.053 14.1955 1.56547 19.8277 0 0 0 
258 1 10 1.00797 0.053 14.1085 40.5048 20.1761 0 -1 0 
259 1 10 1.00797 0.053 11.9034 37.8741 15.0391 0 -1 0 
260 1 10 1.00797 0.053 13.3132 38.199 14.098 0 -1 0 
261 1 10 1.00797 0.053 14.4235 36.1923 14.8687 0 -1 0 
262 1 10 1.00797 0.053 13.1197 35.8466 15.954 0 -1 0 
263 1 10 1.00797 0.053 11.6469 35.5049 13.9803 0 -1 0 
264 1 10 1.00797 0.053 12.1208 36.8836 12.2835 0 -1 0 
265 1 10 1.00797 0.053 12.8228 35.6478 11.564 0 -1 0 
266 1 10 1.00797 0.053 13.914 36.7463 12.1719 0 -1 0 
267 1 10 1.00797 0.053 14.1984 33.9995 13.5828 0 -1 0 
268 1 10 1.00797 0.053 12.9665 33.8292 14.9587 0 -1 0 
269 1 10 1.00797 0.053 11.356 33.3672 12.7852 0 -1 0 
270 1 10 1.00797 0.053 12.9774 33.1782 11.98 0 -1 0 
271 1 11 1.00797 0.36 12.411 31.7797 14.4319 0 -1 0 
272 1 10 1.00797 0.053 11.9654 30.9425 11.7792 0 -1 0 
273 1 10 1.00797 0.053 10.6273 30.9761 12.8963 0 -1 0 
274 1 10 1.00797 0.053 11.2274 28.7736 12.5818 0 -1 0 
275 1 10 1.00797 0.053 14.1046 29.2467 13.4697 0 -1 0 
276 1 10 1.00797 0.053 13.6006 28.5035 11.8948 0 -1 0 
277 1 10 1.00797 0.053 13.2152 27.5191 13.3228 0 -1 0 
278 1 10 1.00797 0.053 11.4161 25.3157 15.3142 0 -1 0 
279 1 10 1.00797 0.053 10.6285 25.1286 13.7434 0 -1 0 
280 1 10 1.00797 0.053 8.75977 26.8642 15.1855 0 -1 0 
281 1 10 1.00797 0.053 8.57678 25.2917 14.3396 0 -1 0 
282 1 10 1.00797 0.053 7.49503 25.3284 16.2979 0 -1 0 
283 1 10 1.00797 0.053 9.93606 23.4035 16.2107 0 -1 0 
284 1 10 1.00797 0.053 8.51011 23.1616 17.4499 0 -1 0 
285 1 10 1.00797 0.053 8.27248 23.1816 15.7531 0 -1 0 
286 1 10 1.00797 0.053 10.1421 26.0361 17.6522 0 -1 0 
287 1 10 1.00797 0.053 8.86764 25.2138 18.5338 0 -1 0 
288 1 10 1.00797 0.053 7.29366 27.0558 18.1367 0 -1 0 
289 1 10 1.00797 0.053 8.47577 27.9446 16.9774 0 -1 0 
290 1 11 1.00797 0.36 8.74386 28.9451 19.0006 0 -1 0 
291 1 10 1.00797 0.053 9.41205 26.387 20.0641 0 -1 0 
292 1 10 1.00797 0.053 8.10889 27.3432 20.7836 0 -1 0 
293 1 10 1.00797 0.053 10.9835 28.0892 20.892 0 -1 0 
294 1 10 1.00797 0.053 10.2494 26.2529 22.3003 0 -1 0 
295 1 10 1.00797 0.053 8.85525 27.2192 23.1019 0 -1 0 
296 1 10 1.00797 0.053 10.7342 27.5622 23.3657 0 -1 0 
297 1 10 1.00797 0.053 12.1677 31.7871 22.5018 0 -1 0 
298 1 10 1.00797 0.053 13.4854 30.6063 22.17 0 -1 0 
299 1 10 1.00797 0.053 11.3229 30.713 24.4419 0 -1 0 
300 1 10 1.00797 0.053 12.7343 29.5507 24.6061 0 -1 0 
301 1 10 1.00797 0.053 12.6324 32.5513 24.7982 0 -1 0 
302 1 10 1.00797 0.053 14.7383 32.4164 23.5305 0 -1 0 
303 1 10 1.00797 0.053 15.3454 32.2555 25.1066 0 -1 0 
304 1 10 1.00797 0.053 15.3131 30.8236 24.038 0 -1 0 
305 1 10 1.00797 0.053 13.5482 30.1738 26.6469 0 -1 0 
306 1 10 1.00797 0.053 13.9651 31.9006 27.0409 0 -1 0 
307 1 10 1.00797 0.053 11.9495 30.9923 28.235 0 -1 0 
308 1 10 1.00797 0.053 11.1681 30.6848 26.6794 0 -1 0 
309 1 11 1.00797 0.36 12.0538 33.4874 27.2786 0 -1 0 
310 1 10 1.00797 0.053 10.0521 34.0022 27.9188 0 -1 0 
311 1 10 1.00797 0.053 9.95244 32.4621 28.4733 0 -1 0 
312 1 10 1.00797 0.053 8.10128 33.6062 27.0276 0 -1 0 
313 1 10 1.00797 0.053 7.35009 31.3703 26.0308 0 -1 0 
314 1 10 1.00797 0.053 7.90242 31.1019 27.7111 0 -1 0 
315 1 10 1.00797 0.053 9.02822 30.6661 26.4025 0 -1 0 
316 1 10 1.00797 0.053 10.1707 36.9814 25.8261 0 -1 0 
317 1 10 1.00797 0.053 10.0419 36.3871 24.0577 0 -1 0 
318 1 10 1.00797 0.053 8.24814 38.0397 25.3492 0 -1 0 
319 1 10 1.00797 0.053 7.66063 36.4832 26.0591 0 -1 0 
320 1 10 1.00797 0.053 7.83448 36.7631 23.0095 0 -1 0 
321 1 10 1.00797 0.053 7.7084 34.4429 23.3279 0 -1 0 
322 1 10 1.00797 0.053 6.56973 34.599 24.563 0 -1 0 
323 1 10 1.00797 0.053 6.12042 34.936 23.0237 0 -1 0 
324 1 10 1.00797 0.053 5.17474 36.7812 24.3618 0 -1 0 
325 1 10 1.00797 0.053 6.1996 38.158 24.6106 0 -1 0 
326 1 10 1.00797 0.053 6.20812 38.8368 22.2987 0 -1 0 
327 1 10 1.00797 0.053 5.6068 37.36 21.7306 0 -1 0 
328 1 11 1.00797 0.36 3.58777 38.1092 23.1728 0 -1 0 
329 1 10 1.00797 0.053 4.77183 39.9516 21.1316 0 -1 0 
330 1 10 1.00797 0.053 3.58371 38.5978 20.7575 0 -1 0 
331 1 10 1.00797 0.053 1.81568 40.1607 21.8851 0 -1 0 
332 1 10 1.00797 0.053 3.63815 1.0401 20.0013 0 0 0 
333 1 10 1.00797 0.053 1.84741 1.09101 20.1757 0 0 0 
334 1 10 1.00797 0.053 2.62073 40.4535 19.3621 0 -1 0 
335 1 10 1.00797 0.053 4.61162 2.22076 23.2086 0 0 0 
336 1 10 1.00797 0.053 5.28478 2.65516 24.815 0 0 0 
337 1 10 1.00797 0.053 5.92727 40.7149 24.6143 0 -1 0 
338 1 10 1.00797 0.053 6.20695 0.428517 22.8724 0 0 0 
339 1 10 1.00797 0.053 7.77607 1.92718 23.2262 0 0 0 
340 1 10 1.00797 0.053 8.14466 40.5711 25.4739 0 -1 0 
341 1 10 1.00797 0.053 8.67471 40.4806 23.7289 0 -1 0 
342 1 10 1.00797 0.053 9.49625 0.887523 24.8456 0 0 0 
343 1 10 1.00797 0.053 8.7493 2.99953 25.0427 0 0 0 
344 1 10 1.00797 0.053 7.07118 3.62826 24.9837 0 0 0 
345 1 10 1.00797 0.053 8.03916 1.42662 26.9489 0 0 0 
346 1 10 1.00797 0.053 6.42075 2.23956 26.9978 0 0 0 
347 1 11 1.00797 0.36 9.01202 3.65925 27.2384 0 0 0 
348 1 10 1.00797 0.053 8.87727 2.20267 29.0072 0 0 0 
349 1 10 1.00797 0.053 7.24362 2.72121 29.2525 0 0 0 
350 1 10 1.00797 0.053 7.66384 4.97557 30.1473 0 0 0 
351 1 10 1.00797 0.053 9.76068 2.89434 30.9796 0 0 0 
352 1 10 1.00797 0.053 7.92281 2.84404 31.3968 0 0 0 
353 1 10 1.00797 0.053 9.05918 4.24141 31.9802 0 0 0 
354 1 10 1.00797 0.053 9.57938 8.50982 28.3644 0 0 0 
355 1 10 1.00797 0.053 10.591 7.94147 27.0413 0 0 0 
356 1 10 1.00797 0.053 12.6078 8.84576 27.8263 0 0 0 
357 1 10 1.00797 0.053 12.3498 8.18647 29.4443 0 0 0 
358 1 10 1.00797 0.053 12.7725 10.7565 29.3216 0 0 0 
359 1 10 1.00797 0.053 10.0913 10.4568 30.434 0 0 0 
360 1 10 1.00797 0.053 11.444 11.357 31.0203 0 0 0 
361 1 10 1.00797 0.053 11.3023 9.49742 31.161 0 0 0 
362 1 10 1.00797 0.053 10.1239 11.0271 27.9567 0 0 0 
363 1 10 1.00797 0.053 11.1711 12.2712 28.4606 0 0 0 
364 1 10 1.00797 0.053 11.1419 11.7066 25.9077 0 0 0 
365 1 10 1.00797 0.053 11.7619 10.0344 26.1911 0 0 0 
366 1 11 1.00797 0.36 13.5159 11.3938 27.4769 0 0 0 
367 1 10 1.00797 0.053 14.9193 12.1091 25.7856 0 0 0 
368 1 10 1.00797 0.053 14.1061 10.5491 25.1478 0 0 0 
369 1 10 1.00797 0.053 14.2088 13.0406 23.7357 0 0 0 
370 1 10 1.00797 0.053 12.2496 10.7156 23.6389 0 0 0 
371 1 10 1.00797 0.053 12.2578 12.1375 22.456 0 0 0 
372 1 10 1.00797 0.053 13.5815 10.9474 22.6275 0 0 0 
373 1 10 1.00797 0.053 14.7524 15.1136 27.4531 0 0 0 
374 1 10 1.00797 0.053 13.0779 16.0328 27.1742 0 0 0 
375 1 10 1.00797 0.053 15.2464 17.2855 26.2997 0 0 0 
376 1 10 1.00797 0.053 13.9816 17.0952 25.1019 0 0 0 
377 1 10 1.00797 0.053 15.3632 15.2483 24.1709 0 0 0 
378 1 10 1.00797 0.053 17.3338 16.1381 26.3968 0 0 0 
379 1 10 1.00797 0.053 16.3049 14.5951 26.4721 0 0 0 
380 1 10 1.00797 0.053 17.7222 14.8003 25.2914 0 0 0 
381 1 10 1.00797 0.053 17.1102 17.5814 24.8534 0 0 0 
382 1 10 1.00797 0.053 17.4203 16.4527 23.5007 0 0 0 
383 1 10 1.00797 0.053 15.1635 17.3273 22.3843 0 0 0 
384 1 10 1.00797 0.053 15.1707 18.4011 23.7235 0 0 0 
385 1 11 1.00797 0.36 17.4304 18.2432 21.8842 0 0 0 
386 1 10 1.00797 0.053 15.0607 19.9843 22.1055 0 0 0 
387 1 10 1.00797 0.053 15.7345 19.0811 20.7538 0 0 0 
388 1 10 1.00797 0.053 17.489 20.3283 20.0784 0 0 0 
389 1 10 1.00797 0.053 16.6951 22.9864 20.3222 0 0 0 
390 1 10 1.00797 0.053 15.1385 22.2508 21.0297 0 0 0 
391 1 10 1.00797 0.053 15.739 21.9199 19.4299 0 0 0 
392 1 10 1.00797 0.053 21.403 20.2565 21.4558 0 0 0 
393 1 10 1.00797 0.053 21.0117 19.007 20.2949 0 0 0 
394 1 10 1.00797 0.053 19.9766 17.7157 22.2979 0 0 0 
395 1 10 1.00797 0.053 20.5147 19.0569 23.2981 0 0 0 
396 1 10 1.00797 0.053 22.5243 17.1378 22.0221 0 0 0 
397 1 10 1.00797 0.053 23.7472 19.2252 22.1148 0 0 0 
398 1 10 1.00797 0.053 22.8264 19.85 23.4531 0 0 0 
399 1 10 1.00797 0.053 24.0134 18.4632 23.6345 0 0 0 
400 1 10 1.00797 0.053 22.8121 16.5391 24.5066 0 0 0 
401 1 10 1.00797 0.053 21.7146 17.8026 24.9251 0 0 0 
402 1 10 1.00797 0.053 20.7959 15.6107 25.2522 0 0 0 
403 1 10 1.00797 0.053 19.8102 16.3608 24.142 0 0 0 
404 1 11 1.00797 0.36 21.9946 14.433 23.1704 0 0 0 
405 1 10 1.00797 0.053 19.5404 13.4765 23.6117 0 0 0 
406 1 10 1.00797 0.053 19.2252 14.4939 22.2439 0 0 0 
407 1 10 1.00797 0.053 21.4947 12.5543 22.1353 0 0 0 
408 1 10 1.00797 0.053 19.8844 11.2389 20.567 0 0 0 
409 1 10 1.00797 0.053 19.0749 11.5529 22.1401 0 0 0 
410 1 10 1.00797 0.053 18.728 12.6846 20.8578 0 0 0 
411 1 10 1.00797 0.053 23.0601 16.0521 17.4483 0 0 0 
412 1 10 1.00797 0.053 23.8272 14.6654 18.2993 0 0 0 
413 1 10 1.00797 0.053 23.9863 16.2607 20.4325 0 0 0 
414 1 10 1.00797 0.053 23.0254 17.53 19.5038 0 0 0 
415 1 10 1.00797 0.053 25.2185 18.3677 19.825 0 0 0 
416 1 10 1.00797 0.053 26.009 15.5344 18.8921 0 0 0 
417 1 10 1.00797 0.053 27.2946 16.797 18.409 0 0 0 
418 1 10 1.00797 0.053 26.7815 16.5753 20.1822 0 0 0 
419 1 10 1.00797 0.053 25.458 16.9552 17.0719 0 0 0 
420 1 10 1.00797 0.053 24.0691 17.9425 17.2039 0 0 0 
421 1 10 1.00797 0.053 26.0442 19.0116 16.0557 0 0 0 
422 1 10 1.00797 0.053 26.9566 18.7515 17.4545 0 0 0 
423 1 11 1.00797 0.36 25.522 20.307 18.6273 0 0 0 
424 1 10 1.00797 0.053 25.7986 21.2254 15.7962 0 0 0 
425 1 10 1.00797 0.053 27.1993 21.5225 17.0334 0 0 0 
426 1 10 1.00797 0.053 25.9497 23.6914 16.5822 0 0 0 
427 1 10 1.00797 0.053 23.293 22.2549 16.88 0 0 0 
428 1 10 1.00797 0.053 23.8049 23.0745 15.4792 0 0 0 
429 1 10 1.00797 0.053 23.623 24.0124 16.8973 0 0 0 
430 1 10 1.00797 0.053 23.8199 24.7264 20.1505 0 0 0 
431 1 10 1.00797 0.053 24.7093 24.9379 21.6595 0 0 0 
432 1 10 1.00797 0.053 23.4245 22.4282 20.6748 0 0 0 
433 1 10 1.00797 0.053 25.2077 22.1931 20.4539 0 0 0 
434 1 10 1.00797 0.053 24.488 21.2936 22.3173 0 0 0 
435 1 10 1.00797 0.053 23.0217 21.9811 24.077 0 0 0 
436 1 10 1.00797 0.053 23.0528 23.7298 23.3242 0 0 0 
437 1 10 1.00797 0.053 22.2983 22.4327 22.3629 0 0 0 
438 1 10 1.00797 0.053 26.578 22.7491 22.4713 0 0 0 
439 1 10 1.00797 0.053 25.5518 23.9446 23.4016 0 0 0 
440 1 10 1.00797 0.053 25.2798 22.5751 25.2656 0 0 0 
441 1 10 1.00797 0.053 26.9566 22.7422 24.8251 0 0 0 
442 1 11 1.00797 0.36 25.2251 20.4471 24.4942 0 0 0 
443 1 10 1.00797 0.053 27.9106 20.7893 25.579 0 0 0 
444 1 10 1.00797 0.053 26.4073 20.5955 26.6062 0 0 0 
445 1 10 1.00797 0.053 28.0296 18.5211 26.2235 0 0 0 
446 1 10 1.00797 0.053 24.9561 17.8138 25.8243 0 0 0 
447 1 10 1.00797 0.053 25.7738 18.4102 27.2575 0 0 0 
448 1 10 1.00797 0.053 26.2664 16.8773 26.5294 0 0 0 
449 1 10 1.00797 0.053 28.8403 17.3772 20.7781 0 0 0 
450 1 10 1.00797 0.053 30.0496 17.3057 22.1707 0 0 0 
451 1 10 1.00797 0.053 30.9322 19.2378 20.8295 0 0 0 
452 1 10 1.00797 0.053 29.7818 20.0272 21.9356 0 0 0 
453 1 10 1.00797 0.053 28.0152 19.8248 20.2257 0 0 0 
454 1 10 1.00797 0.053 30.5945 18.874 18.6474 0 0 0 
455 1 10 1.00797 0.053 28.7914 18.0706 18.6996 0 0 0 
456 1 10 1.00797 0.053 29.1294 19.7495 17.9217 0 0 0 
457 1 10 1.00797 0.053 29.0426 21.5466 18.6876 0 0 0 
458 1 10 1.00797 0.053 30.6618 21.3389 19.5115 0 0 0 
459 1 10 1.00797 0.053 27.9959 22.247 20.6536 0 0 0 
460 1 10 1.00797 0.053 29.469 21.8987 21.6517 0 0 0 
461 1 11 1.00797 0.36 30.5471 23.6298 20.2275 0 0 0 
462 1 10 1.00797 0.053 29.5388 23.9097 22.47 0 0 0 
463 1 10 1.00797 0.053 28.1568 24.3762 21.7407 0 0 0 
464 1 10 1.00797 0.053 29.4802 26.4305 20.7036 0 0 0 
465 1 10 1.00797 0.053 31.3921 27.0882 21.9043 0 0 0 
466 1 10 1.00797 0.053 31.6983 25.7307 20.8729 0 0 0 
467 1 10 1.00797 0.053 31.5556 25.5125 22.6576 0 0 0 
468 1 10 1.00797 0.053 26.6926 28.3496 23.713 0 0 0 
469 1 10 1.00797 0.053 26.9959 26.7034 24.2137 0 0 0 
470 1 10 1.00797 0.053 28.0992 28.0342 24.6435 0 0 0 
471 2 7 12.0112 0.001 0.620198 24.4139 23.4348 1 0 0 
472 2 15 15.9994 -0.32 0.815255 25.3817 22.2846 1 0 0 
473 2 4 12.0112 0.054 2.08529 25.2354 21.6162 1 0 0 
474 2 3 12.0112 -0.106 2.2899 26.4494 20.7634 1 0 0 
475 2 1 12.0112 -0.053 1.28982 26.5465 19.6014 1 0 0 
476 2 6 12.0112 -0.159 1.75501 25.6196 18.5105 1 0 0 
477 2 3 12.0112 -0.106 1.05139 27.9127 18.9194 1 0 0 
478 2 3 12.0112 0.074 0.339494 28.938 19.8107 1 0 0 
479 2 12 14.0067 -0.72 40.5418 30.069 19.0832 0 0 0 
480 2 3 12.0112 0.074 40.2059 31.2924 19.7919 0 0 0 
481 2 2 12.0112 -0.003 40.0871 32.5172 18.8916 0 0 0 
482 2 6 12.0112 -0.159 39.6698 33.7973 19.5624 0 0 0 
483 2 17 15.9994 -0.27 0.629017 32.7515 18.2441 1 0 0 
484 2 9 12.011 1.07 0.837915 32.1964 17.0278 1 0 0 
485 2 16 15.9994 -0.63 40.7311 31.7115 16.3331 0 0 0 
486 2 17 15.9994 -0.27 2.10541 32.4075 16.5777 1 0 0 
487 2 5 12.0112 -0.056 2.46355 31.6918 15.3828 1 0 0 
488 2 3 12.0112 -0.106 4.02263 31.8108 15.2493 1 0 0 
489 2 1 12.0112 -0.053 4.84301 30.7196 14.5763 1 0 0 
490 2 6 12.0112 -0.159 6.36602 31.1001 14.4391 1 0 0 
491 2 3 12.0112 -0.106 4.66234 29.304 15.21 1 0 0 
492 2 3 12.0112 0.074 5.0199 28.1491 14.3453 1 0 0 
493 2 12 14.0067 -0.72 4.95552 26.8808 14.9643 1 0 0 
494 2 3 12.0112 0.074 5.39517 25.914 14.0003 1 0 0 
495 2 2 12.0112 -0.003 5.12732 24.3984 14.1396 1 0 0 
496 2 6 12.0112 -0.159 6.15038 23.4226 13.449 1 0 0 
497 2 17 15.9994 -0.27 5.2303 24.1129 15.5466 1 0 0 
498 2 9 12.011 1.07 4.39596 23.3219 16.1586 1 0 0 
499 2 16 15.9994 -0.63 3.54076 22.6611 15.6911 1 0 0 
500 2 17 15.9994 -0.27 4.69427 23.3354 17.4852 1 0 0 
501 2 5 12.0112 -0.056 3.97607 22.4746 18.4504 1 0 0 
502 2 3 12.0112 -0.106 4.53534 22.6956 19.9259 1 0 0 
503 2 1 12.0112 -0.053 5.87176 21.9197 20.2205 1 0 0 
504 2 6 12.0112 -0.159 6.94576 22.2461 19.1854 1 0 0 
505 2 3 12.0112 -0.106 5.51977 20.4063 20.328 1 0 0 
506 2 3 12.0112 0.074 4.37151 19.8823 21.286 1 0 0 
507 2 12 14.0067 -0.72 4.19184 18.4593 21.2616 1 0 0 
508 2 3 12.0112 0.074 3.06858 17.7544 21.6368 1 0 0 
509 2 2 12.0112 -0.003 3.21895 16.2467 21.24 1 0 0 
510 2 6 12.0112 -0.159 4.4265 15.4933 21.8107 1 0 0 
511 2 17 15.9994 -0.27 3.53601 16.3915 19.7915 1 0 0 
512 2 9 12.011 1.07 2.76134 16.9724 18.9224 1 0 0 
513 2 16 15.9994 -0.63 1.58048 17.1334 19.0979 1 0 0 
514 2 17 15.9994 -0.27 3.36353 17.0771 17.7714 1 0 0 
515 2 5 12.0112 -0.056 4.7457 16.8121 17.4446 1 0 0 
516 2 3 12.0112 -0.106 5.14717 17.24 15.9955 1 0 0 
517 2 1 12.0112 -0.053 5.18497 18.762 15.7613 1 0 0 
518 2 6 12.0112 -0.159 5.92435 19.3488 14.6003 1 0 0 
519 2 3 12.0112 -0.106 3.84725 19.4848 15.7672 1 0 0 
520 2 3 12.0112 0.074 2.68808 18.7887 15.1239 1 0 0 
521 2 12 14.0067 -0.72 1.42395 19.5014 15.1515 1 0 0 
522 2 3 12.0112 0.074 0.485713 19.2959 14.009 1 0 0 
523 2 2 12.0112 -0.003 40.2543 18.0943 14.2126 0 0 0 
524 2 6 12.0112 -0.159 39.5138 17.9486 12.8452 0 0 0 
525 2 17 15.9994 -0.27 0.31768 16.9232 14.6065 1 0 0 
526 2 9 12.011 1.07 0.550297 16.6142 15.8639 1 0 0 
527 2 16 15.9994 -0.63 40.6858 17.1946 16.7272 0 0 0 
528 2 17 15.9994 -0.27 1.36327 15.5597 16.1001 1 0 0 
529 2 5 12.0112 -0.056 1.95867 14.7343 15.0731 1 0 0 
530 2 3 12.0112 -0.106 0.879129 13.7564 14.5904 1 0 0 
531 2 1 12.0112 -0.053 0.711177 12.3528 15.3271 1 0 0 
532 2 6 12.0112 -0.159 2.05632 11.7422 15.5962 1 0 0 
533 2 3 12.0112 -0.106 40.6321 12.527 16.6105 0 0 0 
534 2 3 12.0112 0.074 0.583738 13.0591 17.8055 1 0 0 
535 2 12 14.0067 -0.72 40.4931 13.2239 19.0122 0 0 0 
536 2 3 12.0112 0.074 0.123228 14.2947 19.9719 1 0 0 
537 2 2 12.0112 -0.003 39.8167 14.8136 21.017 0 0 0 
538 2 6 12.0112 -0.159 39.5933 13.7251 22.1093 0 0 0 
539 2 17 15.9994 -0.27 38.4973 14.6776 20.3911 0 0 0 
540 2 9 12.011 1.07 38.1906 15.5483 19.4842 0 0 0 
541 2 16 15.9994 -0.63 38.9164 16.4452 19.1515 0 0 0 
542 2 17 15.9994 -0.27 36.973 15.4249 19.0219 0 0 0 
543 2 5 12.0112 -0.056 36.0567 14.4596 19.5347 0 0 0 
544 2 3 12.0112 -0.106 34.7898 15.2706 19.8752 0 0 0 
545 2 1 12.0112 -0.053 33.5278 14.4812 19.6552 0 0 0 
546 2 6 12.0112 -0.159 32.2823 15.4939 19.6374 0 0 0 
547 2 3 12.0112 -0.106 33.3307 13.448 20.7888 0 0 0 
548 2 3 12.0112 0.074 32.0995 12.5963 20.7311 0 0 0 
549 2 12 14.0067 -0.72 31.9625 11.7064 19.6123 0 0 0 
550 2 3 12.0112 0.074 33.0877 10.7954 19.2835 0 0 0 
551 2 2 12.0112 -0.003 32.6859 9.4342 18.5466 0 0 0 
552 2 6 12.0112 -0.159 32.7261 9.47678 16.9986 0 0 0 
553 2 17 15.9994 -0.27 31.386 9.06653 18.9514 0 0 0 
554 2 9 12.011 1.07 31.0219 8.63287 20.1703 0 0 0 