ITEM: TIMESTEP
0
ITEM: NUMBER OF ATOMS
5770
ITEM: BOX BOUNDS pp pp pp
0.0000000000000000e+00 3.9725519240403401e+01
0.0000000000000000e+00 3.9725519240403401e+01
0.0000000000000000e+00 3.9725519240403401e+01
ITEM: ATOMS id mol type mass q x y z ix iy iz 
1 1 4 12.0112 -0.159 22.5785 17.633 18.2528 0 0 0 
2 1 6 12.0112 -0.1268 22.546 17.7941 19.7117 0 0 0 
3 1 7 12.0112 -0.1268 22.8594 16.8797 20.6647 0 0 0 
4 1 8 12.0112 0.45 23.4295 15.4541 20.3318 0 0 0 
5 1 13 15.9994 -0.45 22.7432 14.5092 20.2499 0 0 0 
6 1 12 14.0067 -0.46 24.754 15.3622 20.2977 0 0 0 
7 1 1 12.0112 0.11 25.3725 14.1261 19.7456 0 0 0 
8 1 4 12.0112 -0.159 26.9266 14.4537 19.7811 0 0 0 
9 1 2 12.0112 0.054 24.8622 13.8095 18.3297 0 0 0 
10 1 15 15.9994 -0.32 25.2437 14.9406 17.5689 0 0 0 
11 1 5 12.0112 0.001 24.8019 14.8659 16.2169 0 0 0 
12 1 3 12.0112 -0.056 25.2369 12.8863 20.6596 0 0 0 
13 1 17 15.9994 -0.27 25.3259 13.4011 22.0293 0 0 0 
14 1 9 12.011 1.07 25.528 12.5537 22.998 0 0 0 
15 1 16 15.9994 -0.63 25.4726 12.823 24.155 0 0 0 
16 1 17 15.9994 -0.27 25.7559 11.3407 22.5554 0 0 0 
17 1 3 12.0112 -0.056 26.0146 10.337 23.5677 0 0 0 
18 1 1 12.0112 0.11 26.3489 8.98476 22.9557 0 0 0 
19 1 4 12.0112 -0.159 26.9929 8.10072 24.0576 0 0 0 
20 1 3 12.0112 -0.056 25.0271 8.22357 22.7329 0 0 0 
21 1 17 15.9994 -0.27 24.2671 8.83282 21.7141 0 0 0 
22 1 9 12.011 1.07 23.3004 8.23128 21.0508 0 0 0 
23 1 16 15.9994 -0.63 22.7821 8.7769 20.1416 0 0 0 
24 1 17 15.9994 -0.27 23.0217 6.97197 21.5088 0 0 0 
25 1 3 12.0112 -0.056 21.9772 6.15863 20.8874 0 0 0 
26 1 1 12.0112 0.11 22.4588 4.59759 20.7712 0 0 0 
27 1 4 12.0112 -0.159 23.5686 4.50617 19.7121 0 0 0 
28 1 3 12.0112 -0.056 21.1314 3.92837 20.3386 0 0 0 
29 1 17 15.9994 -0.27 21.1306 2.53249 20.735 0 0 0 
30 1 9 12.011 1.07 19.9653 1.96002 21.1192 0 0 0 
31 1 16 15.9994 -0.63 18.8959 2.22246 20.6815 0 0 0 
32 1 17 15.9994 -0.27 20.2486 1.07495 22.0284 0 0 0 
33 1 3 12.0112 -0.056 19.2612 0.14119 22.5713 0 0 0 
34 1 1 12.0112 0.11 19.7799 38.3667 22.3691 0 -1 0 
35 1 4 12.0112 -0.159 19.3627 37.4736 23.613 0 -1 0 
36 1 3 12.0112 -0.056 18.8766 37.6912 21.3109 0 -1 0 
37 1 17 15.9994 -0.27 19.3592 36.3942 20.8343 0 -1 0 
38 1 9 12.011 1.07 18.6586 35.8074 19.8785 0 -1 0 
39 1 16 15.9994 -0.63 17.6911 36.3181 19.3337 0 -1 0 
40 1 17 15.9994 -0.27 19.1696 34.6693 19.4489 0 -1 0 
41 1 3 12.0112 -0.056 20.1702 33.9567 20.2628 0 -1 0 
42 1 1 12.0112 0.11 20.4175 32.5764 19.6263 0 -1 0 
43 1 4 12.0112 -0.159 19.2707 31.6655 20.1806 0 -1 0 
44 1 3 12.0112 -0.056 21.7175 31.895 20.1889 0 -1 0 
45 1 17 15.9994 -0.27 22.7821 32.7361 19.5937 0 -1 0 
46 1 9 12.011 1.07 23.7193 32.0559 19.0513 0 -1 0 
47 1 16 15.9994 -0.63 23.8423 30.8638 19.026 0 -1 0 
48 1 17 15.9994 -0.27 24.6542 32.7715 18.4203 0 -1 0 
49 1 3 12.0112 -0.056 24.7471 34.143 18.5793 0 -1 0 
50 1 1 12.0112 0.11 25.5645 34.7268 17.353 0 -1 0 
51 1 4 12.0112 -0.159 27.0238 34.1369 17.4768 0 -1 0 
52 1 3 12.0112 -0.056 25.6393 36.278 17.5786 0 -1 0 
53 1 17 15.9994 -0.27 24.4337 36.8749 17.2622 0 -1 0 
54 1 9 12.011 1.07 23.5054 36.961 18.1765 0 -1 0 
55 1 16 15.9994 -0.63 23.5523 36.5843 19.3157 0 -1 0 
56 1 17 15.9994 -0.27 22.4217 37.5442 17.785 0 -1 0 
57 1 3 12.0112 -0.056 22.0598 38.1132 16.4873 0 -1 0 
58 1 1 12.0112 0.11 20.5634 37.9894 16.3365 0 -1 0 
59 1 4 12.0112 -0.159 20.2276 38.1078 14.7804 0 -1 0 
60 1 3 12.0112 -0.056 20.0346 36.6131 16.8613 0 -1 0 
61 1 17 15.9994 -0.27 18.627 36.6044 16.6603 0 -1 0 
62 1 9 12.011 1.07 17.9432 35.467 16.6781 0 -1 0 
63 1 16 15.9994 -0.63 18.4219 34.4077 16.8476 0 -1 0 
64 1 17 15.9994 -0.27 16.7034 35.7461 16.4952 0 -1 0 
65 1 3 12.0112 -0.056 15.6851 34.7115 16.6798 0 -1 0 
66 1 1 12.0112 0.11 14.4063 34.9738 15.8253 0 -1 0 
67 1 4 12.0112 -0.159 13.5411 35.8128 16.7406 0 -1 0 
68 1 3 12.0112 -0.056 13.6974 33.545 15.7006 0 -1 0 
69 1 17 15.9994 -0.27 12.3822 33.6504 15.2579 0 -1 0 
70 1 9 12.011 1.07 12.0027 33.1861 14.1001 0 -1 0 
71 1 16 15.9994 -0.63 12.7942 32.7893 13.2352 0 -1 0 
72 1 17 15.9994 -0.27 10.7433 33.4652 13.7701 0 -1 0 
73 1 3 12.0112 -0.056 9.95228 34.0626 14.7955 0 -1 0 
74 1 1 12.0112 0.11 8.51543 34.0845 14.211 0 -1 0 
75 1 4 12.0112 -0.159 8.54981 34.8629 12.8103 0 -1 0 
76 1 3 12.0112 -0.056 7.54685 34.7582 15.2232 0 -1 0 
77 1 17 15.9994 -0.27 6.94937 33.816 16.0882 0 -1 0 
78 1 9 12.011 1.07 6.12809 34.112 17.0844 0 -1 0 
79 1 16 15.9994 -0.63 5.76899 35.1981 17.2865 0 -1 0 
80 1 17 15.9994 -0.27 5.70415 33.0225 17.6805 0 -1 0 
81 1 3 12.0112 -0.056 4.37536 33.0635 18.3691 0 -1 0 
82 1 1 12.0112 0.11 4.63764 33.4663 19.9276 0 -1 0 
83 1 4 12.0112 -0.159 3.3782 32.9497 20.6324 0 -1 0 
84 1 3 12.0112 -0.056 4.51254 35.0066 20.1793 0 -1 0 
85 1 17 15.9994 -0.27 4.61907 35.2713 21.521 0 -1 0 
86 1 9 12.011 1.07 4.85087 36.546 21.967 0 -1 0 
87 1 16 15.9994 -0.63 4.84623 37.4971 21.2417 0 -1 0 
88 1 17 15.9994 -0.27 5.06726 36.5322 23.2807 0 -1 0 
89 1 3 12.0112 -0.056 4.95014 37.791 24.026 0 -1 0 
90 1 1 12.0112 0.11 5.96607 37.6082 25.2417 0 -1 0 
91 1 4 12.0112 -0.159 5.42049 36.4943 26.1762 0 -1 0 
92 1 3 12.0112 -0.056 6.22086 38.9108 26.0414 0 -1 0 
93 1 17 15.9994 -0.27 7.07066 38.7038 27.1965 0 -1 0 
94 1 9 12.011 1.07 8.32704 39.0189 27.2401 0 -1 0 
95 1 16 15.9994 -0.63 8.89349 0.155124 26.5872 0 0 0 
96 1 17 15.9994 -0.27 8.9917 38.3624 28.222 0 -1 0 
97 1 3 12.0112 -0.056 10.3407 38.5506 28.3714 0 -1 0 
98 1 1 12.0112 0.11 10.9508 37.196 28.9036 0 -1 0 
99 1 4 12.0112 -0.159 12.3425 36.8903 28.3433 0 -1 0 
100 1 3 12.0112 -0.056 11.3356 37.407 30.4665 0 -1 0 
101 1 17 15.9994 -0.27 10.19 37.2717 31.4059 0 -1 0 
102 1 9 12.011 1.07 9.67227 36.117 31.6757 0 -1 0 
103 1 16 15.9994 -0.63 10.0635 35.1456 31.1952 0 -1 0 
104 1 17 15.9994 -0.27 8.59918 36.1634 32.4317 0 -1 0 
105 1 3 12.0112 -0.056 7.65509 35.0667 32.5981 0 -1 0 
106 1 1 12.0112 0.11 6.24074 35.6004 32.7756 0 -1 0 
107 1 4 12.0112 -0.159 5.30707 34.3127 32.9371 0 -1 0 
108 1 3 12.0112 -0.056 6.11441 36.2677 34.1639 0 -1 0 
109 1 17 15.9994 -0.27 6.55449 37.6654 34.1492 0 -1 0 
110 1 9 12.011 1.07 7.699 38.0423 34.6638 0 -1 0 
111 1 16 15.9994 -0.63 8.31626 37.2167 35.2487 0 -1 0 
112 1 17 15.9994 -0.27 7.99936 39.3247 34.5221 0 -1 0 
113 1 3 12.0112 -0.056 7.27261 0.524855 33.6681 0 0 0 
114 1 1 12.0112 0.11 8.28283 1.52954 33.0775 0 0 0 
115 1 4 12.0112 -0.159 9.01032 0.720762 31.9546 0 0 0 
116 1 3 12.0112 -0.056 7.41737 2.58895 32.3104 0 0 0 
117 1 17 15.9994 -0.27 8.36591 3.6212 31.9496 0 0 0 
118 1 9 12.011 1.07 8.43493 4.76139 32.6159 0 0 0 
119 1 16 15.9994 -0.63 7.83045 4.9951 33.6313 0 0 0 
120 1 17 15.9994 -0.27 9.18152 5.64284 31.9779 0 0 0 
121 1 3 12.0112 -0.056 9.08511 7.04888 32.5046 0 0 0 
122 1 1 12.0112 0.11 9.52228 7.9645 31.2868 0 0 0 
123 1 4 12.0112 -0.159 9.56137 9.43413 31.6658 0 0 0 
124 1 3 12.0112 -0.056 8.35358 7.89743 30.2672 0 0 0 
125 1 17 15.9994 -0.27 8.59821 8.68848 29.0784 0 0 0 
126 1 9 12.011 1.07 7.84972 8.62726 28.0301 0 0 0 
127 1 16 15.9994 -0.63 6.68221 8.2156 28.0784 0 0 0 
128 1 17 15.9994 -0.27 8.40491 9.10981 26.9077 0 0 0 
129 1 3 12.0112 -0.056 9.81267 9.27765 26.9757 0 0 0 
130 1 1 12.0112 0.11 10.5463 8.0542 26.1291 0 0 0 
131 1 4 12.0112 -0.159 11.9689 7.74253 26.7493 0 0 0 
132 1 3 12.0112 -0.056 11.0229 8.68555 24.783 0 0 0 
133 1 17 15.9994 -0.27 11.2777 7.60223 23.8741 0 0 0 
134 1 9 12.011 1.07 10.9432 7.86205 22.5842 0 0 0 
135 1 16 15.9994 -0.63 11.6217 7.36231 21.6828 0 0 0 
136 1 17 15.9994 -0.27 9.88385 8.56647 22.4734 0 0 0 
137 1 3 12.0112 -0.056 9.2657 9.06182 21.2154 0 0 0 
138 1 1 12.0112 0.11 9.73664 10.4895 20.8858 0 0 0 
139 1 4 12.0112 -0.159 9.2439 10.8889 19.4976 0 0 0 
140 1 3 12.0112 -0.056 8.96164 11.5314 21.6538 0 0 0 
141 1 17 15.9994 -0.27 9.49674 11.5257 23.0363 0 0 0 
142 1 9 12.011 1.07 8.78686 12.0421 24.0408 0 0 0 
143 1 16 15.9994 -0.63 9.12508 12.1681 25.1719 0 0 0 
144 1 17 15.9994 -0.27 7.49089 12.3131 23.6567 0 0 0 
145 1 3 12.0112 -0.056 6.59937 13.0028 24.5432 0 0 0 
146 1 1 12.0112 0.11 5.15753 12.6158 24.2116 0 0 0 
147 1 4 12.0112 -0.159 4.95036 13.2636 22.832 0 0 0 
148 1 3 12.0112 -0.056 4.16504 13.3141 25.2477 0 0 0 
149 1 17 15.9994 -0.27 2.95012 12.5411 25.3204 0 0 0 
150 1 9 12.011 1.07 2.11525 12.9729 26.354 0 0 0 
151 1 16 15.9994 -0.63 2.40816 13.9269 26.9781 0 0 0 
152 1 17 15.9994 -0.27 0.999111 12.2759 26.5139 0 0 0 
153 1 3 12.0112 -0.056 0.783321 11.0752 25.7727 0 0 0 
154 1 1 12.0112 0.11 0.659461 9.91252 26.772 0 0 0 
155 1 4 12.0112 -0.159 0.0923395 8.68892 25.9758 0 0 0 
156 1 3 12.0112 -0.056 2.13005 9.52842 27.1949 0 0 0 
157 1 17 15.9994 -0.27 2.70256 10.4857 28.0222 0 0 0 
158 1 9 12.011 1.07 3.65404 10.2481 28.7956 0 0 0 
159 1 16 15.9994 -0.63 4.19843 9.19413 28.8904 0 0 0 
160 1 17 15.9994 -0.27 3.96557 11.2816 29.5952 0 0 0 
161 1 3 12.0112 -0.056 2.95888 12.325 29.8696 0 0 0 
162 1 1 12.0112 0.11 2.5402 12.2308 31.3611 0 0 0 
163 1 4 12.0112 -0.159 1.70708 13.4742 31.6541 0 0 0 
164 1 3 12.0112 -0.056 1.453 11.0564 31.4328 0 0 0 
165 1 17 15.9994 -0.27 2.19672 9.82557 31.2184 0 0 0 
166 1 9 12.011 1.07 1.69584 8.6989 31.5181 0 0 0 
167 1 16 15.9994 -0.63 2.247 7.70884 31.1012 0 0 0 
168 1 17 15.9994 -0.27 0.582767 8.71039 32.1517 0 0 0 
169 1 3 12.0112 -0.056 0.202572 7.61601 33.0778 0 0 0 
170 1 1 12.0112 0.11 38.5774 6.83778 32.7826 -1 0 0 
171 1 4 12.0112 -0.159 37.4622 7.8658 32.9303 -1 0 0 
172 1 3 12.0112 -0.056 38.532 5.82447 33.9433 -1 0 0 
173 1 17 15.9994 -0.27 0.00270514 5.02736 33.732 0 0 0 
174 1 9 12.011 1.07 0.188942 4.08411 32.8589 0 0 0 
175 1 16 15.9994 -0.63 39.2671 3.04546 32.859 -1 0 0 
176 1 17 15.9994 -0.27 1.14877 4.38229 32.0027 0 0 0 
177 1 3 12.0112 -0.056 1.4849 3.45596 30.9445 0 0 0 
178 1 1 12.0112 0.11 2.76716 3.91178 30.0632 0 0 0 
179 1 4 12.0112 -0.159 2.92044 2.81368 28.9818 0 0 0 
180 1 3 12.0112 -0.056 4.15685 3.86908 30.8338 0 0 0 
181 1 17 15.9994 -0.27 4.21654 4.97334 31.8839 0 0 0 
182 1 9 12.011 1.07 4.73627 6.16576 31.5967 0 0 0 
183 1 16 15.9994 -0.63 5.03655 6.49622 30.5064 0 0 0 
184 1 17 15.9994 -0.27 4.88811 6.9343 32.6426 0 0 0 
185 1 3 12.0112 -0.056 4.62254 6.2941 33.9593 0 0 0 
186 1 1 12.0112 0.11 4.93992 7.35423 35.0953 0 0 0 
187 1 4 12.0112 -0.159 6.30188 8.03767 34.7071 0 0 0 
188 1 3 12.0112 -0.056 5.09787 6.62892 36.4169 0 0 0 
189 1 17 15.9994 -0.27 5.34634 7.50331 37.5378 0 0 0 
190 1 9 12.011 1.07 5.44011 7.04639 38.7934 0 0 0 
191 1 16 15.9994 -0.63 5.26101 5.87275 39.0173 0 0 0 
192 1 17 15.9994 -0.27 5.93776 7.89299 39.7202 0 0 0 
193 1 3 12.0112 -0.056 6.35855 9.16381 39.3286 0 0 0 
194 1 1 12.0112 0.11 6.46674 9.98539 0.930279 0 0 1 
195 1 4 12.0112 -0.159 7.14986 11.3127 0.531134 0 0 1 
196 1 3 12.0112 -0.056 5.06738 10.3498 1.51997 0 0 1 
197 1 17 15.9994 -0.27 4.48314 9.37004 2.43485 0 0 1 
198 1 9 12.011 1.07 3.21229 9.05329 2.47527 0 0 1 
199 1 16 15.9994 -0.63 2.41912 9.49962 1.68956 0 0 1 
200 1 17 15.9994 -0.27 2.8568 8.27235 3.51004 0 0 1 
201 1 3 12.0112 -0.056 3.68642 7.79326 4.55206 0 0 1 
202 1 1 12.0112 0.11 4.16606 6.31792 4.23075 0 0 1 
203 1 4 12.0112 -0.159 4.47772 5.693 5.56206 0 0 1 
204 1 3 12.0112 -0.056 5.51998 6.38981 3.44595 0 0 1 
205 1 17 15.9994 -0.27 5.85907 5.06487 2.88313 0 0 1 
206 1 9 12.011 1.07 6.84958 5.2365 1.95648 0 0 1 
207 1 16 15.9994 -0.63 7.45142 6.23713 1.74873 0 0 1 
208 1 17 15.9994 -0.27 7.18775 4.15833 1.37581 0 0 1 
209 1 3 12.0112 -0.056 6.23622 3.07415 1.31327 0 0 1 
210 1 1 12.0112 0.11 6.57744 2.246 39.6999 0 0 0 
211 1 4 12.0112 -0.159 7.63415 1.31869 0.596296 0 0 1 
212 1 2 12.0112 0.054 5.29334 1.49457 39.2993 0 0 0 
213 1 14 15.9994 -0.272 4.65171 1.06395 0.778582 0 0 1 
214 1 8 12.0112 0.562 3.289 1.01642 0.834456 0 0 1 
215 1 4 12.0112 -0.159 2.81129 0.730149 2.21616 0 0 1 
216 1 13 15.9994 -0.45 2.53682 1.15053 39.6617 0 0 0 
217 1 12 14.0067 -0.46 6.98858 3.28296 38.7802 0 0 0 
218 1 8 12.0112 0.45 7.78524 3.17962 37.6648 0 0 0 
219 1 13 15.9994 -0.45 8.09785 2.12651 37.1652 0 0 0 
220 1 7 12.0112 -0.1268 8.20825 4.54984 37.2911 0 0 0 
221 1 6 12.0112 -0.1268 9.33374 5.13934 37.7188 0 0 0 
222 1 4 12.0112 -0.159 9.84165 6.45464 37.331 0 0 0 
223 1 12 14.0067 -0.46 3.06891 5.62791 3.52438 0 0 1 
224 1 8 12.0112 0.45 2.68478 5.81334 2.264 0 0 1 
225 1 13 15.9994 -0.45 3.39989 6.41222 1.44654 0 0 1 
226 1 7 12.0112 -0.1268 1.35118 5.17937 2.07854 0 0 1 
227 1 6 12.0112 -0.1268 1.30617 4.19878 1.15284 0 0 1 
228 1 4 12.0112 -0.159 0.10574 3.39782 0.776194 0 0 1 
229 1 12 14.0067 -0.46 7.29168 9.22271 1.89712 0 0 1 
230 1 8 12.0112 0.45 7.76771 9.53341 3.09009 0 0 1 
231 1 13 15.9994 -0.45 8.52895 8.8662 3.72438 0 0 1 
232 1 7 12.0112 -0.1268 7.35465 10.8335 3.61412 0 0 1 
233 1 6 12.0112 -0.1268 8.21524 11.7903 3.91571 0 0 1 
234 1 4 12.0112 -0.159 7.80448 13.0258 4.69423 0 0 1 
235 1 12 14.0067 -0.46 3.86859 8.31667 35.2613 0 0 0 
236 1 8 12.0112 0.45 3.72747 9.3717 34.4412 0 0 0 
237 1 13 15.9994 -0.45 4.06839 9.461 33.3194 0 0 0 
238 1 7 12.0112 -0.1268 2.89 10.4499 35.0821 0 0 0 
239 1 6 12.0112 -0.1268 3.39428 11.3918 35.9172 0 0 0 
240 1 4 12.0112 -0.159 4.75998 11.5302 36.3732 0 0 0 
241 1 12 14.0067 -0.46 2.48934 5.24127 29.5864 0 0 0 
242 1 8 12.0112 0.45 2.77714 5.65452 28.3877 0 0 0 
243 1 13 15.9994 -0.45 3.68357 6.39704 28.0314 0 0 0 
244 1 7 12.0112 -0.1268 1.60055 5.20916 27.5319 0 0 0 
245 1 6 12.0112 -0.1268 1.70658 4.28913 26.4995 0 0 0 
246 1 4 12.0112 -0.159 0.590248 3.66257 25.7159 0 0 0 
247 1 12 14.0067 -0.46 38.5867 6.19984 31.4308 -1 0 0 
248 1 8 12.0112 0.45 37.4881 5.55566 30.9429 -1 0 0 
249 1 13 15.9994 -0.45 36.5969 5.06798 31.5666 -1 0 0 
250 1 7 12.0112 -0.1268 37.4432 5.82951 29.4415 -1 0 0 
251 1 6 12.0112 -0.1268 37.5195 4.94961 28.4605 -1 0 0 
252 1 4 12.0112 -0.159 37.8215 3.50754 28.5386 -1 0 0 
253 1 12 14.0067 -0.46 3.65893 12.0986 32.3165 0 0 0 
254 1 8 12.0112 0.45 4.51945 13.1068 32.5881 0 0 0 
255 1 13 15.9994 -0.45 4.35129 14.2304 32.2765 0 0 0 
256 1 7 12.0112 -0.1268 5.76646 12.6804 33.2869 0 0 0 
257 1 6 12.0112 -0.1268 7.00194 13.095 32.9173 0 0 0 
258 1 4 12.0112 -0.159 8.32916 12.5442 33.4395 0 0 0 
259 1 12 14.0067 -0.46 39.3526 10.2168 27.8488 -1 0 0 
260 1 8 12.0112 0.45 39.0168 9.45861 28.9421 -1 0 0 
261 1 13 15.9994 -0.45 39.4759 8.40335 29.2576 -1 0 0 
262 1 7 12.0112 -0.1268 37.8293 10.1422 29.5486 -1 0 0 
263 1 6 12.0112 -0.1268 36.5935 9.97989 29.0523 -1 0 0 
264 1 4 12.0112 -0.159 36.1744 9.07359 27.9803 -1 0 0 
265 1 12 14.0067 -0.46 4.93925 11.1819 23.9432 0 0 0 
266 1 8 12.0112 0.45 5.2325 10.2448 24.8391 0 0 0 
267 1 13 15.9994 -0.45 5.6692 10.4908 25.9451 0 0 0 
268 1 7 12.0112 -0.1268 4.86671 8.79822 24.3688 0 0 0 
269 1 6 12.0112 -0.1268 4.86276 7.74512 25.1933 0 0 0 
270 1 4 12.0112 -0.159 4.58259 6.29817 24.7865 0 0 0 
271 1 12 14.0067 -0.46 11.2063 10.6564 21.0071 0 0 0 
272 1 8 12.0112 0.45 12.1704 10.1038 20.2237 0 0 0 
273 1 13 15.9994 -0.45 12.0365 9.18758 19.4746 0 0 0 
274 1 7 12.0112 -0.1268 13.3583 10.9841 20.1003 0 0 0 
275 1 6 12.0112 -0.1268 14.579 10.4045 20.215 0 0 0 
276 1 4 12.0112 -0.159 15.9142 11.1309 20.0675 0 0 0 
277 1 12 14.0067 -0.46 9.6928 6.86726 26.0528 0 0 0 
278 1 8 12.0112 0.45 9.23541 6.18608 27.066 0 0 0 
279 1 13 15.9994 -0.45 9.75819 6.23869 28.1724 0 0 0 
280 1 7 12.0112 -0.1268 7.96437 5.3797 26.7418 0 0 0 
281 1 6 12.0112 -0.1268 7.53684 4.35509 27.5414 0 0 0 
282 1 4 12.0112 -0.159 6.19828 3.60962 27.3054 0 0 0 
283 1 12 14.0067 -0.46 10.729 7.33672 30.6785 0 0 0 
284 1 8 12.0112 0.45 12.0144 7.47452 31.0032 0 0 0 
285 1 13 15.9994 -0.45 12.9058 7.16186 30.2135 0 0 0 
286 1 7 12.0112 -0.1268 12.3915 8.00252 32.3564 0 0 0 
287 1 6 12.0112 -0.1268 12.5526 7.24393 33.4583 0 0 0 
288 1 4 12.0112 -0.159 12.5236 5.76055 33.411 0 0 0 
289 1 12 14.0067 -0.46 9.09052 2.13843 34.0743 0 0 0 
290 1 8 12.0112 0.45 10.3694 2.4994 34.0184 0 0 0 
291 1 13 15.9994 -0.45 11.0837 2.58991 33.0479 0 0 0 
292 1 7 12.0112 -0.1268 10.89 2.61577 35.4325 0 0 0 
293 1 6 12.0112 -0.1268 12.1054 3.0329 35.8234 0 0 0 
294 1 4 12.0112 -0.159 12.5008 3.42475 37.2539 0 0 0 
295 1 12 14.0067 -0.46 5.70688 36.5358 31.7286 0 -1 0 
296 1 8 12.0112 0.45 5.99626 36.516 30.4078 0 -1 0 
297 1 13 15.9994 -0.45 6.99161 36.117 29.9378 0 -1 0 
298 1 7 12.0112 -0.1268 4.83462 37.0648 29.669 0 -1 0 
299 1 6 12.0112 -0.1268 4.50829 38.3542 29.5355 0 -1 0 
300 1 4 12.0112 -0.159 5.3018 39.5148 30.045 0 -1 0 
301 1 12 14.0067 -0.46 10.2857 35.9556 28.7806 0 -1 0 
302 1 8 12.0112 0.45 9.68882 35.4886 27.6963 0 -1 0 
303 1 13 15.9994 -0.45 9.244 36.064 26.7706 0 -1 0 
304 1 7 12.0112 -0.1268 9.73573 33.9746 27.7997 0 -1 0 
305 1 6 12.0112 -0.1268 10.6098 33.2766 27.1147 0 -1 0 
306 1 4 12.0112 -0.159 10.4887 31.7055 26.9297 0 -1 0 
307 1 12 14.0067 -0.46 7.27812 37.0389 24.7243 0 -1 0 
308 1 8 12.0112 0.45 7.95671 37.6079 23.7123 0 -1 0 
309 1 13 15.9994 -0.45 7.47383 38.3349 22.917 0 -1 0 
310 1 7 12.0112 -0.1268 9.39928 37.1841 23.8696 0 -1 0 
311 1 6 12.0112 -0.1268 10.3901 38.0492 24.1336 0 -1 0 
312 1 4 12.0112 -0.159 11.8599 37.6663 24.4108 0 -1 0 
313 1 12 14.0067 -0.46 5.85634 32.9783 20.528 0 -1 0 
314 1 8 12.0112 0.45 7.06371 33.5337 20.3451 0 -1 0 
315 1 13 15.9994 -0.45 7.29745 34.3126 19.4401 0 -1 0 
316 1 7 12.0112 -0.1268 8.10175 33.0606 21.4018 0 -1 0 
317 1 6 12.0112 -0.1268 8.54524 33.8969 22.3603 0 -1 0 
318 1 4 12.0112 -0.159 9.44899 33.5701 23.5263 0 -1 0 
319 1 12 14.0067 -0.46 8.07488 32.6299 13.9626 0 -1 0 
320 1 8 12.0112 0.45 6.95779 32.1203 13.4495 0 -1 0 
321 1 13 15.9994 -0.45 6.94249 30.9594 13.1713 0 -1 0 
322 1 7 12.0112 -0.1268 5.74521 33.0556 13.1211 0 -1 0 
323 1 6 12.0112 -0.1268 4.60889 32.9562 13.9153 0 -1 0 
324 1 4 12.0112 -0.159 3.40455 33.7793 13.6697 0 -1 0 
325 1 12 14.0067 -0.46 14.592 35.7656 14.6818 0 -1 0 
326 1 8 12.0112 0.45 15.3013 35.2156 13.6713 0 -1 0 
327 1 13 15.9994 -0.45 15.747 34.1027 13.6914 0 -1 0 
328 1 7 12.0112 -0.1268 15.5392 36.0535 12.4961 0 -1 0 
329 1 6 12.0112 -0.1268 14.678 36.9716 11.9147 0 -1 0 
330 1 4 12.0112 -0.159 13.237 37.1163 12.2821 0 -1 0 
331 1 12 14.0067 -0.46 20.124 39.1991 17.1345 0 -1 0 
332 1 8 12.0112 0.45 18.8712 39.5277 17.3618 0 -1 0 
333 1 13 15.9994 -0.45 18.56 0.238807 18.4292 0 0 0 
334 1 7 12.0112 -0.1268 18.0238 39.4497 16.1556 0 -1 0 
335 1 6 12.0112 -0.1268 16.6447 39.475 16.2932 0 -1 0 
336 1 4 12.0112 -0.159 15.6076 39.5465 15.1922 0 -1 0 
337 1 12 14.0067 -0.46 25.1055 34.3587 16.0987 0 -1 0 
338 1 8 12.0112 0.45 23.8193 34.2004 15.7482 0 -1 0 
339 1 13 15.9994 -0.45 22.8533 34.3842 16.4862 0 -1 0 
340 1 7 12.0112 -0.1268 23.7488 33.9369 14.2636 0 -1 0 
341 1 6 12.0112 -0.1268 22.7622 34.3749 13.5108 0 -1 0 
342 1 4 12.0112 -0.159 22.2964 34.1875 12.0906 0 -1 0 
343 1 12 14.0067 -0.46 20.3212 32.7944 18.185 0 -1 0 
344 1 8 12.0112 0.45 20.4562 31.9129 17.1816 0 -1 0 
345 1 13 15.9994 -0.45 21.0802 30.8967 17.2942 0 -1 0 
346 1 7 12.0112 -0.1268 19.9899 32.2855 15.7309 0 -1 0 
347 1 6 12.0112 -0.1268 18.8721 31.926 15.1158 0 -1 0 
348 1 4 12.0112 -0.159 17.777 31.0329 15.6992 0 -1 0 
349 1 12 14.0067 -0.46 21.1936 38.1675 22.0803 0 -1 0 
350 1 8 12.0112 0.45 21.8263 38.7381 21.0547 0 -1 0 
351 1 13 15.9994 -0.45 21.3398 38.9879 20.0088 0 -1 0 
352 1 7 12.0112 -0.1268 23.1036 39.3132 21.4443 0 -1 0 
353 1 6 12.0112 -0.1268 23.8281 0.416007 20.6385 0 0 0 
354 1 4 12.0112 -0.159 25.0705 1.13375 20.9203 0 0 0 
355 1 12 14.0067 -0.46 22.8468 4.04935 22.0733 0 0 0 
356 1 8 12.0112 0.45 22.298 4.30087 23.2373 0 0 0 
357 1 13 15.9994 -0.45 21.1177 4.3471 23.3688 0 0 0 
358 1 7 12.0112 -0.1268 23.3188 4.36929 24.341 0 0 0 
359 1 6 12.0112 -0.1268 22.8304 4.69315 25.5385 0 0 0 
360 1 4 12.0112 -0.159 23.4693 5.16672 26.8739 0 0 0 
361 1 12 14.0067 -0.46 27.2159 8.85067 21.6295 0 0 0 
362 1 8 12.0112 0.45 28.3468 9.47155 21.5222 0 0 0 
363 1 13 15.9994 -0.45 28.5482 10.6511 21.6149 0 0 0 
364 1 7 12.0112 -0.1268 29.4773 8.57336 21.1244 0 0 0 
365 1 6 12.0112 -0.1268 30.2762 8.946 20.1852 0 0 0 
366 1 4 12.0112 -0.159 31.4334 8.15282 19.6714 0 0 0 
367 1 10 1.00797 0.053 23.1151 16.7803 17.89 0 0 0 
368 1 10 1.00797 0.053 23.1922 18.5097 18.0196 0 0 0 
369 1 10 1.00797 0.053 21.5577 17.5766 17.7843 0 0 0 
370 1 10 1.00797 0.1268 22.2228 18.77 20.1615 0 0 0 
371 1 10 1.00797 0.1268 22.6295 17.1295 21.7276 0 0 0 
372 1 11 1.008 0.35 25.3999 15.9029 20.8489 0 0 0 
373 1 10 1.00797 0.053 27.2182 14.8711 20.7337 0 0 0 
374 1 10 1.00797 0.053 27.4015 15.2423 19.1363 0 0 0 
375 1 10 1.00797 0.053 27.3803 13.4619 19.6009 0 0 0 
376 1 10 1.00797 0.053 25.3817 12.9938 17.8653 0 0 0 
377 1 10 1.00797 0.053 23.7512 13.6782 18.4863 0 0 0 
378 1 10 1.00797 0.053 25.0207 15.8524 15.718 0 0 0 
379 1 10 1.00797 0.053 25.3349 14.0194 15.7262 0 0 0 
380 1 10 1.00797 0.053 23.7527 14.7062 16.0894 0 0 0 
381 1 10 1.00797 0.053 24.1386 12.6101 20.5021 0 0 0 
382 1 10 1.00797 0.053 26.0183 12.1017 20.4414 0 0 0 
383 1 10 1.00797 0.053 25.1366 10.2602 24.2427 0 0 0 
384 1 10 1.00797 0.053 26.8831 10.588 24.1763 0 0 0 
385 1 10 1.00797 0.053 26.314 7.96409 24.9189 0 0 0 
386 1 10 1.00797 0.053 27.8941 8.50143 24.4632 0 0 0 
387 1 10 1.00797 0.053 27.2453 7.08106 23.7242 0 0 0 
388 1 10 1.00797 0.053 25.1667 7.16058 22.5823 0 0 0 
389 1 10 1.00797 0.053 24.4195 8.16553 23.6731 0 0 0 
390 1 10 1.00797 0.053 21.0301 6.30046 21.3779 0 0 0 
391 1 10 1.00797 0.053 21.9029 6.44114 19.8444 0 0 0 
392 1 10 1.00797 0.053 23.1185 4.65224 18.6747 0 0 0 
393 1 10 1.00797 0.053 23.943 3.50727 19.6274 0 0 0 
394 1 10 1.00797 0.053 24.4286 5.12036 19.9015 0 0 0 
395 1 10 1.00797 0.053 20.8955 4.08489 19.2227 0 0 0 
396 1 10 1.00797 0.053 20.367 4.39319 20.9629 0 0 0 
397 1 10 1.00797 0.053 19.1996 0.27347 23.6992 0 0 0 
398 1 10 1.00797 0.053 18.2942 0.391991 22.0978 0 0 0 
399 1 10 1.00797 0.053 18.3146 37.6314 23.8529 0 -1 0 
400 1 10 1.00797 0.053 19.4949 36.4113 23.442 0 -1 0 
401 1 10 1.00797 0.053 19.9608 37.7055 24.4946 0 -1 0 
402 1 10 1.00797 0.053 17.8693 37.5947 21.6965 0 -1 0 
403 1 10 1.00797 0.053 18.6942 38.3634 20.3574 0 -1 0 
404 1 10 1.00797 0.053 19.7959 33.8572 21.2542 0 -1 0 
405 1 10 1.00797 0.053 21.0613 34.6185 20.2988 0 -1 0 
406 1 10 1.00797 0.053 19.3447 30.5811 19.8947 0 -1 0 
407 1 10 1.00797 0.053 18.2915 31.9505 19.7908 0 -1 0 
408 1 10 1.00797 0.053 19.1447 31.7474 21.2775 0 -1 0 
409 1 10 1.00797 0.053 21.8822 30.9093 19.9339 0 -1 0 
410 1 10 1.00797 0.053 21.7147 32.0376 21.2918 0 -1 0 
411 1 10 1.00797 0.053 25.2529 34.2604 19.5676 0 -1 0 
412 1 10 1.00797 0.053 23.7248 34.5004 18.697 0 -1 0 
413 1 10 1.00797 0.053 27.8732 34.5194 16.826 0 -1 0 
414 1 10 1.00797 0.053 26.998 33.0422 17.3719 0 -1 0 
415 1 10 1.00797 0.053 27.3345 34.3624 18.5058 0 -1 0 
416 1 10 1.00797 0.053 25.8603 36.5267 18.609 0 -1 0 
417 1 10 1.00797 0.053 26.3567 36.6369 16.9339 0 -1 0 
418 1 10 1.00797 0.053 22.5494 37.4096 15.6923 0 -1 0 
419 1 10 1.00797 0.053 22.4232 39.1844 16.3369 0 -1 0 
420 1 10 1.00797 0.053 20.3516 39.1307 14.3731 0 -1 0 
421 1 10 1.00797 0.053 21.0019 37.4952 14.2987 0 -1 0 
422 1 10 1.00797 0.053 19.2507 37.7751 14.5275 0 -1 0 
423 1 10 1.00797 0.053 20.1933 36.3569 17.9459 0 -1 0 
424 1 10 1.00797 0.053 20.4856 35.7862 16.2448 0 -1 0 
425 1 10 1.00797 0.053 15.539 34.6115 17.7712 0 -1 0 
426 1 10 1.00797 0.053 16.1808 33.7984 16.3719 0 -1 0 
427 1 10 1.00797 0.053 12.7383 36.3481 16.1979 0 -1 0 
428 1 10 1.00797 0.053 13.0734 35.2915 17.6071 0 -1 0 
429 1 10 1.00797 0.053 14.071 36.6706 17.1621 0 -1 0 
430 1 10 1.00797 0.053 13.7012 33.1516 16.7401 0 -1 0 
431 1 10 1.00797 0.053 14.3289 32.7912 15.1682 0 -1 0 
432 1 10 1.00797 0.053 10.2429 35.2131 14.8426 0 -1 0 
433 1 10 1.00797 0.053 10.014 33.5145 15.7842 0 -1 0 
434 1 10 1.00797 0.053 9.20344 34.4053 12.1373 0 -1 0 
435 1 10 1.00797 0.053 7.59307 34.7571 12.2409 0 -1 0 
436 1 10 1.00797 0.053 8.91187 35.8186 12.9433 0 -1 0 
437 1 10 1.00797 0.053 6.85581 35.2744 14.5426 0 -1 0 
438 1 10 1.00797 0.053 8.08225 35.4684 15.8805 0 -1 0 
439 1 10 1.00797 0.053 3.95659 32.0486 18.3311 0 -1 0 
440 1 10 1.00797 0.053 3.7265 33.7057 17.8112 0 -1 0 
441 1 10 1.00797 0.053 3.5186 32.9555 21.7162 0 -1 0 
442 1 10 1.00797 0.053 2.59502 33.6287 20.3245 0 -1 0 
443 1 10 1.00797 0.053 3.12326 31.9384 20.314 0 -1 0 
444 1 10 1.00797 0.053 5.25777 35.6004 19.6757 0 -1 0 
445 1 10 1.00797 0.053 3.51287 35.3786 19.914 0 -1 0 
446 1 10 1.00797 0.053 5.21252 38.5938 23.3785 0 -1 0 
447 1 10 1.00797 0.053 3.84903 37.9049 24.3443 0 -1 0 
448 1 10 1.00797 0.053 6.15435 36.3807 27.0149 0 -1 0 
449 1 10 1.00797 0.053 5.35998 35.5321 25.677 0 -1 0 
450 1 10 1.00797 0.053 4.39612 36.7057 26.655 0 -1 0 
451 1 10 1.00797 0.053 6.60236 0.0561236 25.4136 0 0 0 
452 1 10 1.00797 0.053 5.21257 39.1316 26.5079 0 -1 0 
453 1 10 1.00797 0.053 10.3948 39.3498 29.0493 0 -1 0 
454 1 10 1.00797 0.053 10.7408 38.925 27.4752 0 -1 0 
455 1 10 1.00797 0.053 13.0245 37.6667 28.6735 0 -1 0 
456 1 10 1.00797 0.053 12.897 36.0325 28.8246 0 -1 0 
457 1 10 1.00797 0.053 12.3252 36.7655 27.1883 0 -1 0 
458 1 10 1.00797 0.053 11.7662 38.4343 30.5409 0 -1 0 
459 1 10 1.00797 0.053 12.1502 36.7337 30.8294 0 -1 0 
460 1 10 1.00797 0.053 8.01246 34.571 33.4773 0 -1 0 
461 1 10 1.00797 0.053 7.75757 34.403 31.7007 0 -1 0 
462 1 10 1.00797 0.053 5.3802 33.5985 32.0684 0 -1 0 
463 1 10 1.00797 0.053 4.23209 34.4988 33.0208 0 -1 0 
464 1 10 1.00797 0.053 5.71004 33.7464 33.7857 0 -1 0 
465 1 10 1.00797 0.053 5.06907 36.3586 34.3873 0 -1 0 
466 1 10 1.00797 0.053 6.62584 35.6276 34.9112 0 -1 0 
467 1 10 1.00797 0.053 6.45881 1.09402 34.3001 0 0 0 
468 1 10 1.00797 0.053 6.79981 0.0164304 32.8437 0 0 0 
469 1 10 1.00797 0.053 9.63442 1.34008 31.3063 0 0 0 
470 1 10 1.00797 0.053 9.51216 39.6022 32.3647 0 -1 0 
471 1 10 1.00797 0.053 8.34471 0.261192 31.1892 0 0 0 
472 1 10 1.00797 0.053 6.99261 2.09122 31.3907 0 0 0 
473 1 10 1.00797 0.053 6.7084 2.97784 33.0441 0 0 0 
474 1 10 1.00797 0.053 8.07758 7.22991 32.7698 0 0 0 
475 1 10 1.00797 0.053 9.67947 7.14889 33.4121 0 0 0 
476 1 10 1.00797 0.053 9.942 10.0354 30.7916 0 0 0 
477 1 10 1.00797 0.053 10.275 9.73493 32.4983 0 0 0 
478 1 10 1.00797 0.053 8.52131 9.84672 31.9099 0 0 0 
479 1 10 1.00797 0.053 8.15502 6.87463 29.9616 0 0 0 
480 1 10 1.00797 0.053 7.43002 8.37884 30.7345 0 0 0 
481 1 10 1.00797 0.053 10.1404 9.42097 27.9752 0 0 0 
482 1 10 1.00797 0.053 10.069 10.1776 26.4435 0 0 0 
483 1 10 1.00797 0.053 12.0655 7.19815 27.7669 0 0 0 
484 1 10 1.00797 0.053 12.4938 8.66607 26.9998 0 0 0 
485 1 10 1.00797 0.053 12.5973 7.0539 26.1566 0 0 0 
486 1 10 1.00797 0.053 10.2178 9.35225 24.3934 0 0 0 
487 1 10 1.00797 0.053 11.9654 9.24083 24.9653 0 0 0 
488 1 10 1.00797 0.053 8.18137 9.16785 21.3444 0 0 0 
489 1 10 1.00797 0.053 9.34518 8.21998 20.494 0 0 0 
490 1 10 1.00797 0.053 8.1643 11.0204 19.4844 0 0 0 
491 1 10 1.00797 0.053 9.69579 11.8213 19.0724 0 0 0 
492 1 10 1.00797 0.053 9.26756 10.0752 18.714 0 0 0 
493 1 10 1.00797 0.053 7.88035 11.2956 21.6039 0 0 0 
494 1 10 1.00797 0.053 9.04858 12.5529 21.313 0 0 0 
495 1 10 1.00797 0.053 6.81468 14.1114 24.3224 0 0 0 
496 1 10 1.00797 0.053 6.84507 12.7417 25.5794 0 0 0 
497 1 10 1.00797 0.053 3.92386 13.062 22.4832 0 0 0 
498 1 10 1.00797 0.053 5.07842 14.405 22.7559 0 0 0 
499 1 10 1.00797 0.053 5.61894 12.8192 22.1683 0 0 0 
500 1 10 1.00797 0.053 4.49367 13.5137 26.301 0 0 0 
501 1 10 1.00797 0.053 3.93271 14.3337 24.9195 0 0 0 
502 1 10 1.00797 0.053 39.5109 11.2663 25.2782 -1 0 0 
503 1 10 1.00797 0.053 1.54691 10.8763 25.0729 0 0 0 
504 1 10 1.00797 0.053 39.6645 7.75948 26.5839 -1 0 0 
505 1 10 1.00797 0.053 38.8537 8.86228 25.5206 -1 0 0 
506 1 10 1.00797 0.053 0.904297 8.3758 25.1748 0 0 0 
507 1 10 1.00797 0.053 2.79058 9.31936 26.3357 0 0 0 
508 1 10 1.00797 0.053 1.94121 8.52459 27.7812 0 0 0 
509 1 10 1.00797 0.053 2.13781 12.3444 29.1506 0 0 0 
510 1 10 1.00797 0.053 3.4343 13.2447 29.6269 0 0 0 
511 1 10 1.00797 0.053 2.23272 14.3598 31.2979 0 0 0 
512 1 10 1.00797 0.053 1.5245 13.5986 32.7783 0 0 0 
513 1 10 1.00797 0.053 0.671625 13.4653 31.2867 0 0 0 
514 1 10 1.00797 0.053 0.710012 11.0433 30.6895 0 0 0 
515 1 10 1.00797 0.053 0.910212 11.0987 32.4181 0 0 0 
516 1 10 1.00797 0.053 0.034654 8.03648 34.0868 0 0 0 
517 1 10 1.00797 0.053 1.09491 6.96316 33.1119 0 0 0 
518 1 10 1.00797 0.053 37.2336 8.10081 34.0179 -1 0 0 
519 1 10 1.00797 0.053 36.5316 7.28809 32.7069 -1 0 0 
520 1 10 1.00797 0.053 37.5773 8.7153 32.2531 -1 0 0 
521 1 10 1.00797 0.053 38.6787 6.38663 34.8676 -1 0 0 
522 1 10 1.00797 0.053 37.6113 5.20211 34.1008 -1 0 0 
523 1 10 1.00797 0.053 1.82231 2.46979 31.4295 0 0 0 
524 1 10 1.00797 0.053 0.647897 3.2488 30.3475 0 0 0 
525 1 10 1.00797 0.053 3.00646 1.80143 29.3213 0 0 0 
526 1 10 1.00797 0.053 3.86956 3.03275 28.3807 0 0 0 
527 1 10 1.00797 0.053 2.05621 2.75416 28.282 0 0 0 
528 1 10 1.00797 0.053 5.03117 3.86754 30.1544 0 0 0 
529 1 10 1.00797 0.053 4.24303 2.84363 31.3481 0 0 0 
530 1 10 1.00797 0.053 5.28423 5.42043 34.0541 0 0 0 
531 1 10 1.00797 0.053 3.54516 5.91756 33.8785 0 0 0 
532 1 10 1.00797 0.053 7.04135 7.26551 34.598 0 0 0 
533 1 10 1.00797 0.053 6.63155 8.72334 35.4268 0 0 0 
534 1 10 1.00797 0.053 6.23733 8.62329 33.7751 0 0 0 
535 1 10 1.00797 0.053 4.21087 5.98904 36.6643 0 0 0 
536 1 10 1.00797 0.053 5.95953 5.93925 36.2821 0 0 0 
537 1 10 1.00797 0.053 7.40838 9.16049 38.8818 0 0 0 
538 1 10 1.00797 0.053 5.7037 9.6161 38.6296 0 0 0 
539 1 10 1.00797 0.053 7.42237 11.9967 1.39808 0 0 1 
540 1 10 1.00797 0.053 8.06763 11.1004 0.0526195 0 0 1 
541 1 10 1.00797 0.053 6.5775 11.8591 39.5152 0 0 0 
542 1 10 1.00797 0.053 5.16131 11.3251 2.05156 0 0 1 
543 1 10 1.00797 0.053 4.36706 10.4812 0.63949 0 0 1 
544 1 10 1.00797 0.053 4.62172 8.35724 4.68694 0 0 1 
545 1 10 1.00797 0.053 3.13583 7.74246 5.48817 0 0 1 
546 1 10 1.00797 0.053 5.25773 6.20859 6.06858 0 0 1 
547 1 10 1.00797 0.053 4.73888 4.65083 5.36399 0 0 1 
548 1 10 1.00797 0.053 3.57304 5.7504 6.20932 0 0 1 
549 1 10 1.00797 0.053 5.40127 7.09225 2.63205 0 0 1 
550 1 10 1.00797 0.053 6.43171 6.7091 4.05901 0 0 1 
551 1 10 1.00797 0.053 6.35565 2.38511 2.20019 0 0 1 
552 1 10 1.00797 0.053 5.22569 3.4551 1.26537 0 0 1 
553 1 10 1.00797 0.053 8.1187 0.743774 39.5721 0 0 0 