LAMMPS data file via write_data, version 12 Dec 2018, timestep = 2950000

5770 atoms
100 atom types
5663 bonds
100 bond types
9888 angles
100 angle types
12351 dihedrals
100 dihedral types
5406 impropers
100 improper types

0.0000000000000000e+00 3.9725519240403401e+01 xlo xhi
0.0000000000000000e+00 3.9725519240403401e+01 ylo yhi
0.0000000000000000e+00 3.9725519240403401e+01 zlo zhi

Masses

1 12.0112
2 12.0112
3 12.0112
4 12.0112
5 12.0112
6 12.0112
7 12.0112
8 12.0112
9 12.011
10 1.00797
11 1.008
12 14.0067
13 15.9994
14 15.9994
15 15.9994
16 15.9994
17 15.9994
18 1
19 1
20 1
21 1
22 1
23 1
24 1
25 1
26 1
27 1
28 1
29 1
30 1
31 1
32 1
33 1
34 1
35 1
36 1
37 1
38 1
39 1
40 1
41 1
42 1
43 1
44 1
45 1
46 1
47 1
48 1
49 1
50 1
51 1
52 1
53 1
54 1
55 1
56 1
57 1
58 1
59 1
60 1
61 1
62 1
63 1
64 1
65 1
66 1
67 1
68 1
69 1
70 1
71 1
72 1
73 1
74 1
75 1
76 1
77 1
78 1
79 1
80 1
81 1
82 1
83 1
84 1
85 1
86 1
87 1
88 1
89 1
90 6.941
91 12.0112
92 18.9984
93 14.0067
94 15.9994
95 32.065
96 1
97 1
98 1
99 1
100 1

Pair Coeffs # lj/class2/coul/long

1 0.007 3.75
2 0.054 3.815
3 0.068 3.915
4 0.071 3.884
5 0.0688 3.8727
6 0.081 3.91
7 0.081 3.91
8 0.064 3.9
9 0.064 3.9
10 0.023 2.878
11 0.012 1.4
12 0.2 3.92
13 0.192 3.43
14 0.096 3.45
15 0.12 3.3
16 0.086 3.3
17 0.086 3.3
18 0.1 3
19 0.1 3
20 0.1 3
21 0.1 3
22 0.1 3
23 0.1 3
24 0.1 3
25 0.1 3
26 0.1 3
27 0.1 3
28 0.1 3
29 0.1 3
30 0.1 3
31 0.1 3
32 0.1 3
33 0.1 3
34 0.1 3
35 0.1 3
36 0.1 3
37 0.1 3
38 0.1 3
39 0.1 3
40 0.1 3
41 0.1 3
42 0.1 3
43 0.1 3
44 0.1 3
45 0.1 3
46 0.1 3
47 0.1 3
48 0.1 3
49 0.1 3
50 0.1 3
51 0.1 3
52 0.1 3
53 0.1 3
54 0.1 3
55 0.1 3
56 0.1 3
57 0.1 3
58 0.1 3
59 0.1 3
60 0.1 3
61 0.1 3
62 0.1 3
63 0.1 3
64 0.1 3
65 0.1 3
66 0.1 3
67 0.1 3
68 0.1 3
69 0.1 3
70 0.1 3
71 0.1 3
72 0.1 3
73 0.1 3
74 0.1 3
75 0.1 3
76 0.1 3
77 0.1 3
78 0.1 3
79 0.1 3
80 0.1 3
81 0.1 3
82 0.1 3
83 0.1 3
84 0.1 3
85 0.1 3
86 0.1 3
87 0.1 3
88 0.1 3
89 0.1 3
90 0.3727 1.635
91 0.04 3.75
92 0.0488 3.421
93 0.1643 3.89
94 0.2029 3.5432
95 0.25 4.027
96 0.1 3
97 0.1 3
98 0.1 3
99 0.1 3
100 0.1 3

Bond Coeffs # class2

1 1.506 312.35 -582.19 339.9
2 1.101 345 -691.89 844.6
3 1.34 543.99 -1238.2 1644
4 1.0883 365.77 -725.54 781.66
5 1.5 322.8 0 0
6 1.0883 365.77 -725.54 781.66
7 1.202 851.14 -1918.5 2160.8
8 1.336 390.68 -768.38 923.24
9 1.4432 319.16 -586.32 961.41
10 0.9959 495.83 -1092.7 1441.1
11 1.53 299.67 -501.77 679.81
12 1.53 299.67 -501.77 679.81
13 1.53 299.67 -501.77 679.81
14 1.42 400.4 -835.2 1313
15 1.101 345 -691.89 844.6
16 1.42 400.4 -835.2 1313
17 1.101 345 -691.89 844.6
18 1.4457 326.73 -608.53 689.03
19 1.101 345 -691.89 844.6
20 1.3398 391.33 -788.57 1212.4
21 1.1953 854.29 -1922.3 2301.7
22 1.43 326.73 -608.53 689.03
23 1.3683 367.15 -794.79 1055.2
24 1.4902 253.71 -423.04 396.9
25 1 1 1 1
26 1 1 1 1
27 1 1 1 1
28 1 1 1 1
29 1 1 1 1
30 1 1 1 1
31 1 1 1 1
32 1 1 1 1
33 1 1 1 1
34 1 1 1 1
35 1 1 1 1
36 1 1 1 1
37 1 1 1 1
38 1 1 1 1
39 1 1 1 1
40 1 1 1 1
41 1 1 1 1
42 1 1 1 1
43 1 1 1 1
44 1 1 1 1
45 1 1 1 1
46 1 1 1 1
47 1 1 1 1
48 1 1 1 1
49 1 1 1 1
50 1 1 1 1
51 1 1 1 1
52 1 1 1 1
53 1 1 1 1
54 1 1 1 1
55 1 1 1 1
56 1 1 1 1
57 1 1 1 1
58 1 1 1 1
59 1 1 1 1
60 1 1 1 1
61 1 1 1 1
62 1 1 1 1
63 1 1 1 1
64 1 1 1 1
65 1 1 1 1
66 1 1 1 1
67 1 1 1 1
68 1 1 1 1
69 1 1 1 1
70 1 1 1 1
71 1 1 1 1
72 1 1 1 1
73 1 1 1 1
74 1 1 1 1
75 1 1 1 1
76 1 1 1 1
77 1 1 1 1
78 1 1 1 1
79 1 1 1 1
80 1 1 1 1
81 1 1 1 1
82 1 1 1 1
83 1 1 1 1
84 1 1 1 1
85 1 1 1 1
86 1 1 1 1
87 1 1 1 1
88 1 1 1 1
89 1 1 1 1
90 1 1 1 1
91 1.35 403.03 0 0
92 1.795 257.33 0 0
93 1.4308 743.76 0 0
94 1.5944 205.78 0 0
95 1 1 1 1
96 1 1 1 1
97 1 1 1 1
98 1 1 1 1
99 1 1 1 1
100 1 1 1 1

Angle Coeffs # class2

1 110.06 41.278 -14.296 5.2229
2 107.66 39.641 -12.921 -2.4318
3 126.26 43.825 -27.727 1.0056
4 117.27 30.094 -8.0826 -8.6781
5 124.88 35.277 -17.774 -1.6215
6 121.1 66.11 -22.021 -15.213
7 124.88 35.277 -17.774 -1.6215
8 120.3 35.7 -11.506 -8.1591
9 125.9 46.06 -18.546 -11.1
10 113.6 41.12 -9.8283 -8.9479
11 125.53 101.88 -41.809 0
12 122.75 60.465 -29.619 0
13 122.95 40.482 -16.203 0
14 120.14 29.222 -14.145 7.238
15 114.3 42.659 -10.546 -9.3243
16 114.3 42.659 -10.546 -9.3243
17 114.3 42.659 -10.546 -9.3243
18 112.67 39.516 -7.443 -9.5583
19 112.67 39.516 -7.443 -9.5583
20 112.67 39.516 -7.443 -9.5583
21 110.77 41.453 -10.604 5.129
22 111.27 54.538 -8.3642 -13.084
23 110.77 41.453 -10.604 5.129
24 108.73 58.545 -10.809 -12.401
25 107.66 39.641 -12.921 -2.4318
26 104.5 35.745 -10.007 -6.2729
27 108.73 58.545 -10.809 -12.401
28 107.66 39.641 -12.921 -2.4318
29 105.41 63.391 -13.451 0
30 110.77 41.453 -10.604 5.129
31 107.69 70.48 -10.35 0
32 107.66 39.641 -12.921 -2.4318
33 113.62 57.927 -17.131 60
34 120.05 97.378 -26.562 0
35 109.49 137.91 -39.876 59.077
36 112.67 39.516 -7.443 -9.5583
37 107.41 63.391 -13.451 1.665
38 107.69 65.48 -10.35 5.8866
39 109.47 61.287 -28.979 7.9929
40 100.32 38.863 -3.8323 -7.9802
41 120.8 95.345 -32.287 6.3778
42 123.15 55.543 -17.212 0.1348
43 107.73 40.61 -28.812 0
44 100 50 0 0
45 100 50 0 0
46 100 50 0 0
47 100 50 0 0
48 100 50 0 0
49 100 50 0 0
50 100 50 0 0
51 100 50 0 0
52 100 50 0 0
53 100 50 0 0
54 100 50 0 0
55 100 50 0 0
56 100 50 0 0
57 100 50 0 0
58 100 50 0 0
59 100 50 0 0
60 100 50 0 0
61 100 50 0 0
62 100 50 0 0
63 100 50 0 0
64 100 50 0 0
65 100 50 0 0
66 100 50 0 0
67 100 50 0 0
68 100 50 0 0
69 100 50 0 0
70 100 50 0 0
71 100 50 0 0
72 100 50 0 0
73 100 50 0 0
74 100 50 0 0
75 100 50 0 0
76 100 50 0 0
77 100 50 0 0
78 100 50 0 0
79 100 50 0 0
80 100 50 0 0
81 100 50 0 0
82 100 50 0 0
83 100 50 0 0
84 100 50 0 0
85 100 50 0 0
86 100 50 0 0
87 100 50 0 0
88 100 50 0 0
89 100 50 0 0
90 100 50 0 0
91 109.1 71.97 0 0
92 109.5 60 0 0
93 109.5 50 0 0
94 109.5 50 0 0
95 119.33 135 0 0
96 109.5 50 0 0
97 120 50 0 0
98 100 50 0 0
99 100 50 0 0
100 100 50 0 0

BondBond Coeffs

1 9.9922 1.506 1.101
2 5.3316 1.101 1.101
3 17.791 1.506 1.34
4 3.4394 1.506 1.0883
5 10.105 1.34 1.0883
6 0 1.34 1.5
7 10.105 1.34 1.0883
8 0 1.5 1.0883
9 0 1.5 1.202
10 0 1.5 1.336
11 116.94 1.336 1.202
12 27.856 1.4432 1.336
13 8.6253 1.336 0.9959
14 5.2897 1.4432 0.9959
15 11.185 1.53 1.4432
16 11.185 1.53 1.4432
17 11.185 1.53 1.4432
18 0 1.53 1.53
19 0 1.53 1.53
20 0 1.53 1.53
21 3.3872 1.53 1.101
22 11.432 1.53 1.42
23 3.3872 1.53 1.101
24 23.198 1.101 1.42
25 5.3316 1.101 1.101
26 -7.1131 1.42 1.42
27 23.198 1.101 1.42
28 5.3316 1.101 1.101
29 23.265 1.53 1.4457
30 3.3872 1.53 1.101
31 5.6454 1.101 1.4457
32 5.3316 1.101 1.101
33 42.094 1.4457 1.3398
34 122.5 1.1953 1.3398
35 83.71 1.3398 1.3398
36 0 1.53 1.53
37 23.265 1.53 1.43
38 5.6454 1.101 1.43
39 45.45 1.43 1.3683
40 19.107 1.4902 1.3683
41 121.49 1.202 1.3683
42 46.069 1.4902 1.202
43 0.7115 1.4902 1.101
44 0 1 1
45 0 1 1
46 0 1 1
47 0 1 1
48 0 1 1
49 0 1 1
50 0 1 1
51 0 1 1
52 0 1 1
53 0 1 1
54 0 1 1
55 0 1 1
56 0 1 1
57 0 1 1
58 0 1 1
59 0 1 1
60 0 1 1
61 0 1 1
62 0 1 1
63 0 1 1
64 0 1 1
65 0 1 1
66 0 1 1
67 0 1 1
68 0 1 1
69 0 1 1
70 0 1 1
71 0 1 1
72 0 1 1
73 0 1 1
74 0 1 1
75 0 1 1
76 0 1 1
77 0 1 1
78 0 1 1
79 0 1 1
80 0 1 1
81 0 1 1
82 0 1 1
83 0 1 1
84 0 1 1
85 0 1 1
86 0 1 1
87 0 1 1
88 0 1 1
89 0 1 1
90 0 1 1
91 0 1.35 1.35
92 0 1.35 1.795
93 0 1.795 1.4308
94 0 1.795 1.5944
95 0 1.4308 1.4308
96 0 1.5944 1.4308
97 0 1.5944 1.5944
98 0 1 1
99 0 1 1
100 0 1 1

BondAngle Coeffs

1 20.877 14.274 1.506 1.101
2 18.103 18.103 1.101 1.101
3 31.588 24.225 1.506 1.34
4 17.645 15.349 1.506 1.0883
5 23.359 19.059 1.34 1.0883
6 0 0 1.34 1.5
7 23.359 19.059 1.34 1.0883
8 0 0 1.5 1.0883
9 0 0 1.5 1.202
10 0 0 1.5 1.336
11 32.876 46.109 1.336 1.202
12 0 0 1.4432 1.336
13 0 0 1.336 0.9959
14 13.897 10.997 1.4432 0.9959
15 18.332 46.207 1.53 1.4432
16 18.332 46.207 1.53 1.4432
17 18.332 46.207 1.53 1.4432
18 8.016 8.016 1.53 1.53
19 8.016 8.016 1.53 1.53
20 8.016 8.016 1.53 1.53
21 20.754 11.421 1.53 1.101
22 2.6868 20.403 1.53 1.42
23 20.754 11.421 1.53 1.101
24 4.6189 55.327 1.101 1.42
25 18.103 18.103 1.101 1.101
26 -2.8112 -2.8112 1.42 1.42
27 4.6189 55.327 1.101 1.42
28 18.103 18.103 1.101 1.101
29 23.392 47.949 1.53 1.4457
30 20.754 11.421 1.53 1.101
31 8.6864 57.498 1.101 1.4457
32 18.103 18.103 1.101 1.101
33 32.482 53.592 1.4457 1.3398
34 73.601 81.853 1.1953 1.3398
35 102.65 102.65 1.3398 1.3398
36 8.016 8.016 1.53 1.53
37 23.392 47.949 1.53 1.43
38 8.6864 57.498 1.101 1.43
39 41.912 46.461 1.43 1.3683
40 1.3435 4.6978 1.4902 1.3683
41 76.261 71.876 1.202 1.3683
42 34.998 37.13 1.4902 1.202
43 12.463 9.1765 1.4902 1.101
44 0 0 1 1
45 0 0 1 1
46 0 0 1 1
47 0 0 1 1
48 0 0 1 1
49 0 0 1 1
50 0 0 1 1
51 0 0 1 1
52 0 0 1 1
53 0 0 1 1
54 0 0 1 1
55 0 0 1 1
56 0 0 1 1
57 0 0 1 1
58 0 0 1 1
59 0 0 1 1
60 0 0 1 1
61 0 0 1 1
62 0 0 1 1
63 0 0 1 1
64 0 0 1 1
65 0 0 1 1
66 0 0 1 1
67 0 0 1 1
68 0 0 1 1
69 0 0 1 1
70 0 0 1 1
71 0 0 1 1
72 0 0 1 1
73 0 0 1 1
74 0 0 1 1
75 0 0 1 1
76 0 0 1 1
77 0 0 1 1
78 0 0 1 1
79 0 0 1 1
80 0 0 1 1
81 0 0 1 1
82 0 0 1 1
83 0 0 1 1
84 0 0 1 1
85 0 0 1 1
86 0 0 1 1
87 0 0 1 1
88 0 0 1 1
89 0 0 1 1
90 0 0 1 1
91 0 0 1.35 1.35
92 0 0 1.35 1.795
93 0 0 1.795 1.4308
94 0 0 1.795 1.5944
95 0 0 1.4308 1.4308
96 0 0 1.5944 1.4308
97 0 0 1.5944 1.5944
98 0 0 1 1
99 0 0 1 1
100 0 0 1 1

Dihedral Coeffs # class2

1 0.1143 0 0 0 0.1854 0
2 -0.1143 0 0 0 -0.1349 0
3 0 0 4.075 0 0 0
4 0 0 5.2097 0 0 0
5 0 0 4.075 0 0 0
6 0 0 4.8974 0 0 0
7 0 0 0.45 0 0 0
8 0 0 0.45 0 0 0
9 0 0 0.45 0 0 0
10 0 0 0.45 0 0 0
11 0 0 0.9 0 0 0
12 0 0 0.9 0 0 0
13 0 0 2.0521 0 0 0
14 0 0 2.0521 0 0 0
15 0 0 0 0 -0.2263 0
16 0 0 0 0 -0.2263 0
17 0 0 0 0 -0.2263 0
18 0 0 0 0 -0.3263 0
19 0 0 0 0 -0.3263 0
20 0 0 0 0 -0.3263 0
21 0 0 0 0 -0.1441 0
22 0 0 0.0316 0 -0.1681 0
23 0 0 0.0316 0 -0.1681 0
24 0 0 0 0 0.158 0
25 0 0 0 0 -0.1441 0
26 0.7137 0 0.266 0 -0.2545 0
27 0 0 0.0316 0 -0.1681 0
28 0.7137 0 0.266 0 -0.2545 0
29 0 0 0.0316 0 -0.1681 0
30 0 0 0 0 0.158 0
31 0 0 0 0 -0.1441 0
32 -3.6896 0 0 0 0 0
33 0 0 0.0316 0 -0.1681 0
34 -3.6896 0 0 0 0 0
35 0 0 0.0316 0 -0.1681 0
36 -0.5203 0 -0.3028 0 -0.345 0
37 0.5302 0 0 0 -0.3966 0
38 0.5302 0 0 0 -0.3966 0
39 0 0 0 0 -0.1932 0
40 0 0 0 0 -0.1932 0
41 -4.2342 0 1.8099 0 0 0
42 -4.0149 0 1.8643 0 0 0
43 -3.6896 0 0 0 0 0
44 0 0 0.0316 0 -0.1681 0
45 0 0 0 0 -0.25 0
46 0 0 0 0 -0.25 0
47 0 0 0 0 -0.1441 0
48 0 0 0 0 -0.1932 0
49 0 0 0 0 -0.1932 0
50 -2.5594 0 2.2013 0 0.0325 0
51 0 0 2.2089 0 0 0
52 -0.6359 0 1.4807 0 -0.0438 0
53 -0.1804 0 0.0012 0 0.0371 0
54 0 0 0 0 0 0
55 0 0 0 0 0 0
56 0 0 0 0 0 0
57 0 0 0 0 0 0
58 0 0 0 0 0 0
59 0 0 0 0 0 0
60 0 0 0 0 0 0
61 0 0 0 0 0 0
62 0 0 0 0 0 0
63 0 0 0 0 0 0
64 0 0 0 0 0 0
65 0 0 0 0 0 0
66 0 0 0 0 0 0
67 0 0 0 0 0 0
68 0 0 0 0 0 0
69 0 0 0 0 0 0
70 0 0 0 0 0 0
71 0 0 0 0 0 0
72 0 0 0 0 0 0
73 0 0 0 0 0 0
74 0 0 0 0 0 0
75 0 0 0 0 0 0
76 0 0 0 0 0 0
77 0 0 0 0 0 0
78 0 0 0 0 0 0
79 0 0 0 0 0 0
80 0 0 0 0 0 0
81 0 0 0 0 0 0
82 0 0 0 0 0 0
83 0 0 0 0 0 0
84 0 0 0 0 0 0
85 0 0 0 0 0 0
86 0 0 0 0 0 0
87 0 0 0 0 0 0
88 0 0 0 0 0 0
89 0 0 0 0 0 0
90 0 0 0 0 0 0
91 0 0 0 0 0.1367 0
92 0 0 0 0 0.1367 0
93 0 0 0.5 0 0 0
94 0 0 0.5 0 0 0
95 0 0 0 0 0 0
96 0 0 0 0 0 0
97 0 0 0 0 0 0
98 0 0 0 0 0 0
99 0 0 0 0 0 0
100 0 0 0 0 0 0

AngleAngleTorsion Coeffs

1 -13.683 110.06 126.26
2 -10.951 110.06 117.27
3 0 126.26 121.1
4 -7.6912 126.26 124.88
5 0 124.88 121.1
6 -7.0058 124.88 124.88
7 0 121.1 125.9
8 0 121.1 113.6
9 0 120.3 125.9
10 0 120.3 113.6
11 0 113.6 122.75
12 0 113.6 122.95
13 0 125.53 122.75
14 0 125.53 122.95
15 0 114.3 122.75
16 0 114.3 122.75
17 0 114.3 122.75
18 0 114.3 120.14
19 0 114.3 120.14
20 0 114.3 120.14
21 0 114.3 110.77
22 -16.164 112.67 110.77
23 -16.164 112.67 110.77
24 0 114.3 111.27
25 0 114.3 110.77
26 -29.042 112.67 111.27
27 -16.164 112.67 110.77
28 -29.042 112.67 111.27
29 -16.164 112.67 110.77
30 0 114.3 105.41
31 0 114.3 110.77
32 0 112.67 105.41
33 -16.164 112.67 110.77
34 0 112.67 105.41
35 -16.164 112.67 110.77
36 -19.006 111.27 104.5
37 -16.444 108.73 104.5
38 -16.444 108.73 104.5
39 0 105.41 113.62
40 0 107.69 113.62
41 0 120.05 113.62
42 0 109.49 113.62
43 0 112.67 105.41
44 -16.164 112.67 110.77
45 0 112.67 107.41
46 0 112.67 107.41
47 0 114.3 107.41
48 0 107.41 109.47
49 0 107.69 109.47
50 0 100.32 109.47
51 0 120.8 109.47
52 0 107.73 100.32
53 -15.35 107.73 123.15
54 0 100 100
55 0 100 100
56 0 100 100
57 0 100 100
58 0 100 100
59 0 100 100
60 0 100 100
61 0 100 100
62 0 100 100
63 0 100 100
64 0 100 100
65 0 100 100
66 0 100 100
67 0 100 100
68 0 100 100
69 0 100 100
70 0 100 100
71 0 100 100
72 0 100 100
73 0 100 100
74 0 100 100
75 0 100 100
76 0 100 100
77 0 100 100
78 0 100 100
79 0 100 100
80 0 100 100
81 0 100 100
82 0 100 100
83 0 100 100
84 0 100 100
85 0 100 100
86 0 100 100
87 0 100 100
88 0 100 100
89 0 100 100
90 0 100 100
91 0 109.5 109.5
92 0 109.5 109.5
93 0 120 109.5
94 0 120 109.5
95 0 100 100
96 0 100 100
97 0 100 100
98 0 100 100
99 0 100 100
100 0 100 100

EndBondTorsion Coeffs

1 1.9787 0 -0.1805 0.8566 0 0.0811 1.101 1.34
2 0.2212 0 0.0915 0.5934 0 0.0424 1.101 1.0883
3 0 0 0 0 0 0 1.506 1.5
4 -0.2201 0.677 0 0.5406 -0.1611 0 1.506 1.0883
5 0 0 0 0 0 0 1.0883 1.5
6 0.7129 0.5161 0 0.7129 0.5161 0 1.0883 1.0883
7 0 0 0 0 0 0 1.34 1.202
8 0 0 0 0 0 0 1.34 1.336
9 0 0 0 0 0 0 1.0883 1.202
10 0 0 0 0 0 0 1.0883 1.336
11 0 0 0 0 0 0 1.5 1.4432
12 0 0 0 0 0 0 1.5 0.9959
13 0 0 0 0 0 0 1.202 1.4432
14 0 0 0 0 0 0 1.202 0.9959
15 0 0 0 0 0 0 1.53 1.336
16 0 0 0 0 0 0 1.53 1.336
17 0 0 0 0 0 0 1.53 1.336
18 0 0 0 0 0 0 1.53 0.9959
19 0 0 0 0 0 0 1.53 0.9959
20 0 0 0 0 0 0 1.53 0.9959
21 0 0 0 0 0 0 1.4432 1.101
22 0.2486 0.2422 -0.0925 0.0814 0.0591 0.2219 1.53 1.101
23 0.2486 0.2422 -0.0925 0.0814 0.0591 0.2219 1.53 1.101
24 0 0 0 0 0 0 1.4432 1.42
25 0 0 0 0 0 0 1.4432 1.101
26 -0.319 0.4411 -0.7174 1.1538 0.8409 -0.9138 1.53 1.42
27 0.2486 0.2422 -0.0925 0.0814 0.0591 0.2219 1.53 1.101
28 -0.319 0.4411 -0.7174 1.1538 0.8409 -0.9138 1.53 1.42
29 0.2486 0.2422 -0.0925 0.0814 0.0591 0.2219 1.53 1.101
30 0 0 0 0 0 0 1.4432 1.4457
31 0 0 0 0 0 0 1.4432 1.101
32 0 0 0 0 0 0 1.53 1.4457
33 0.2486 0.2422 -0.0925 0.0814 0.0591 0.2219 1.53 1.101
34 0 0 0 0 0 0 1.53 1.4457
35 0.2486 0.2422 -0.0925 0.0814 0.0591 0.2219 1.53 1.101
36 -0.2456 1.0517 -0.7795 0.4741 1.2635 0.5576 1.53 1.42
37 -0.6054 1.3339 0.9648 -0.162 0.1564 -1.1408 1.101 1.42
38 -0.6054 1.3339 0.9648 -0.162 0.1564 -1.1408 1.101 1.42
39 0 0 0 0 0 0 1.53 1.3398
40 0 0 0 0 0 0 1.101 1.3398
41 0 0 0 0 0 0 1.1953 1.4457
42 0 0 0 0 0 0 1.3398 1.4457
43 0 0 0 0 0 0 1.53 1.4457
44 0.2486 0.2422 -0.0925 0.0814 0.0591 0.2219 1.53 1.101
45 0 0 0 0 0 0 1.53 1.43
46 0 0 0 0 0 0 1.53 1.43
47 0 0 0 0 0 0 1.4432 1.43
48 0 0 0 0 0 0 1.53 1.3683
49 0 0 0 0 0 0 1.101 1.3683
50 0 0 0 0 0 0 1.4902 1.43
51 0 0 0 0 0 0 1.202 1.43
52 0 0 0 0 0 0 1.101 1.3683
53 1.2143 0.2831 0.3916 -0.2298 0.0354 0.3853 1.101 1.202
54 0 0 0 0 0 0 1 1
55 0 0 0 0 0 0 1 1
56 0 0 0 0 0 0 1 1
57 0 0 0 0 0 0 1 1
58 0 0 0 0 0 0 1 1
59 0 0 0 0 0 0 1 1
60 0 0 0 0 0 0 1 1
61 0 0 0 0 0 0 1 1
62 0 0 0 0 0 0 1 1
63 0 0 0 0 0 0 1 1
64 0 0 0 0 0 0 1 1
65 0 0 0 0 0 0 1 1
66 0 0 0 0 0 0 1 1
67 0 0 0 0 0 0 1 1
68 0 0 0 0 0 0 1 1
69 0 0 0 0 0 0 1 1
70 0 0 0 0 0 0 1 1
71 0 0 0 0 0 0 1 1
72 0 0 0 0 0 0 1 1
73 0 0 0 0 0 0 1 1
74 0 0 0 0 0 0 1 1
75 0 0 0 0 0 0 1 1
76 0 0 0 0 0 0 1 1
77 0 0 0 0 0 0 1 1
78 0 0 0 0 0 0 1 1
79 0 0 0 0 0 0 1 1
80 0 0 0 0 0 0 1 1
81 0 0 0 0 0 0 1 1
82 0 0 0 0 0 0 1 1
83 0 0 0 0 0 0 1 1
84 0 0 0 0 0 0 1 1
85 0 0 0 0 0 0 1 1
86 0 0 0 0 0 0 1 1
87 0 0 0 0 0 0 1 1
88 0 0 0 0 0 0 1 1
89 0 0 0 0 0 0 1 1
90 0 0 0 0 0 0 1 1
91 0 0 0 0 0 0 1.35 1.4308
92 0 0 0 0 0 0 1.35 1.5944
93 0 0 0 0 0 0 1.5944 1.795
94 0 0 0 0 0 0 1.5944 1.4308
95 0 0 0 0 0 0 1 1
96 0 0 0 0 0 0 1 1
97 0 0 0 0 0 0 1 1
98 0 0 0 0 0 0 1 1
99 0 0 0 0 0 0 1 1
100 0 0 0 0 0 0 1 1

MiddleBondTorsion Coeffs

1 -1.5727 0 0.6565 1.506
2 1.873 0 -0.3702 1.506
3 0 0 0 1.34
4 1.122 6.0669 0 1.34
5 0 0 0 1.34
6 0.8558 6.3911 0 1.34
7 0 0 0 1.5
8 0 0 0 1.5
9 0 0 0 1.5
10 0 0 0 1.5
11 0 0 0 1.336
12 0 0 0 1.336
13 0 0 0 1.336
14 0 0 0 1.336
15 0 0 0 1.4432
16 0 0 0 1.4432
17 0 0 0 1.4432
18 0 0 0 1.4432
19 0 0 0 1.4432
20 0 0 0 1.4432
21 0 0 0 1.53
22 -14.879 -3.6581 -0.3138 1.53
23 -14.879 -3.6581 -0.3138 1.53
24 0 0 0 1.53
25 0 0 0 1.53
26 -21.884 -7.6764 -0.6868 1.53
27 -14.879 -3.6581 -0.3138 1.53
28 -21.884 -7.6764 -0.6868 1.53
29 -14.879 -3.6581 -0.3138 1.53
30 0 0 0 1.53
31 0 0 0 1.53
32 0 0 0 1.53
33 -14.879 -3.6581 -0.3138 1.53
34 0 0 0 1.53
35 -14.879 -3.6581 -0.3138 1.53
36 -5.9288 -2.7007 -0.3175 1.42
37 -6.8007 -4.6546 -1.4101 1.42
38 -6.8007 -4.6546 -1.4101 1.42
39 0 0 0 1.4457
40 0 0 0 1.4457
41 0 4.6748 0 1.3398
42 0 6.4736 0 1.3398
43 0 0 0 1.53
44 -14.879 -3.6581 -0.3138 1.53
45 0 0 0 1.53
46 0 0 0 1.53
47 0 0 0 1.53
48 -5.435 0 0 1.43
49 0 0 0 1.43
50 1.3445 3.5515 -4.9202 1.3683
51 4.26 0 0 1.3683
52 -13.769 -2.5959 1.1934 1.4902
53 0.2359 0.9139 0.9594 1.4902
54 0 0 0 1
55 0 0 0 1
56 0 0 0 1
57 0 0 0 1
58 0 0 0 1
59 0 0 0 1
60 0 0 0 1
61 0 0 0 1
62 0 0 0 1
63 0 0 0 1
64 0 0 0 1
65 0 0 0 1
66 0 0 0 1
67 0 0 0 1
68 0 0 0 1
69 0 0 0 1
70 0 0 0 1
71 0 0 0 1
72 0 0 0 1
73 0 0 0 1
74 0 0 0 1
75 0 0 0 1
76 0 0 0 1
77 0 0 0 1
78 0 0 0 1
79 0 0 0 1
80 0 0 0 1
81 0 0 0 1
82 0 0 0 1
83 0 0 0 1
84 0 0 0 1
85 0 0 0 1
86 0 0 0 1
87 0 0 0 1
88 0 0 0 1
89 0 0 0 1
90 0 0 0 1
91 0 0 0 1.795
92 0 0 0 1.795
93 0 0 0 1.5944
94 0 0 0 1.5944
95 0 0 0 1
96 0 0 0 1
97 0 0 0 1
98 0 0 0 1
99 0 0 0 1
100 0 0 0 1

BondBond13 Coeffs

1 0 1.101 1.34
2 0 1.101 1.0883
3 0 1.506 1.5
4 0 1.506 1.0883
5 0 1.0883 1.5
6 0 1.0883 1.0883
7 0 1.34 1.202
8 0 1.34 1.336
9 0 1.0883 1.202
10 0 1.0883 1.336
11 0 1.5 1.4432
12 0 1.5 0.9959
13 0 1.202 1.4432
14 0 1.202 0.9959
15 0 1.53 1.336
16 0 1.53 1.336
17 0 1.53 1.336
18 0 1.53 0.9959
19 0 1.53 0.9959
20 0 1.53 0.9959
21 0 1.4432 1.101
22 0 1.53 1.101
23 0 1.53 1.101
24 0 1.4432 1.42
25 0 1.4432 1.101
26 0 1.53 1.42
27 0 1.53 1.101
28 0 1.53 1.42
29 0 1.53 1.101
30 0 1.4432 1.4457
31 0 1.4432 1.101
32 0 1.53 1.4457
33 0 1.53 1.101
34 0 1.53 1.4457
35 0 1.53 1.101
36 0 1.53 1.42
37 0 1.101 1.42
38 0 1.101 1.42
39 0 1.53 1.3398
40 0 1.101 1.3398
41 0 1.1953 1.4457
42 0 1.3398 1.4457
43 0 1.53 1.4457
44 0 1.53 1.101
45 0 1.53 1.43
46 0 1.53 1.43
47 0 1.4432 1.43
48 0 1.53 1.3683
49 0 1.101 1.3683
50 0 1.4902 1.43
51 0 1.202 1.43
52 0 1.101 1.3683
53 0 1.101 1.202
54 0 1 1
55 0 1 1
56 0 1 1
57 0 1 1
58 0 1 1
59 0 1 1
60 0 1 1
61 0 1 1
62 0 1 1
63 0 1 1
64 0 1 1
65 0 1 1
66 0 1 1
67 0 1 1
68 0 1 1
69 0 1 1
70 0 1 1
71 0 1 1
72 0 1 1
73 0 1 1
74 0 1 1
75 0 1 1
76 0 1 1
77 0 1 1
78 0 1 1
79 0 1 1
80 0 1 1
81 0 1 1
82 0 1 1
83 0 1 1
84 0 1 1
85 0 1 1
86 0 1 1
87 0 1 1
88 0 1 1
89 0 1 1
90 0 1 1
91 0 1.35 1.4308
92 0 1.35 1.5944
93 0 1.5944 1.795
94 0 1.5944 1.4308
95 0 1 1
96 0 1 1
97 0 1 1
98 0 1 1
99 0 1 1
100 0 1 1

AngleTorsion Coeffs

1 1.5982 0 0 -1.8873 0 0 110.06 126.26
2 1.9061 0 0 -0.0677 0 0 110.06 117.27
3 0 0 0 0 0 0 126.26 121.1
4 -5.4082 1.4731 0 -1.5176 3.7112 0 126.26 124.88
5 0 0 0 0 0 0 124.88 121.1
6 -1.8911 3.254 0 -1.8911 3.254 0 124.88 124.88
7 0 0 0 0 0 0 121.1 125.9
8 0 0 0 0 0 0 121.1 113.6
9 0 0 0 0 0 0 120.3 125.9
10 0 0 0 0 0 0 120.3 113.6
11 0 0 0 0 0 0 113.6 122.75
12 0 0 0 0 0 0 113.6 122.95
13 0 0 0 0 0 0 125.53 122.75
14 0 0 0 0 0 0 125.53 122.95
15 0 0 0 0 0 0 114.3 122.75
16 0 0 0 0 0 0 114.3 122.75
17 0 0 0 0 0 0 114.3 122.75
18 0 0 0 0 0 0 114.3 120.14
19 0 0 0 0 0 0 114.3 120.14
20 0 0 0 0 0 0 114.3 120.14
21 0 0 0 0 0 0 114.3 110.77
22 -0.2454 0 -0.1136 0.3113 0.4516 -0.1988 112.67 110.77
23 -0.2454 0 -0.1136 0.3113 0.4516 -0.1988 112.67 110.77
24 0 0 0 0 0 0 114.3 111.27
25 0 0 0 0 0 0 114.3 110.77
26 0.5623 -0.3041 -0.4015 0.9672 -0.7566 -1.2331 112.67 111.27
27 -0.2454 0 -0.1136 0.3113 0.4516 -0.1988 112.67 110.77
28 0.5623 -0.3041 -0.4015 0.9672 -0.7566 -1.2331 112.67 111.27
29 -0.2454 0 -0.1136 0.3113 0.4516 -0.1988 112.67 110.77
30 0 0 0 0 0 0 114.3 105.41
31 0 0 0 0 0 0 114.3 110.77
32 0 0 0 0 0 0 112.67 105.41
33 -0.2454 0 -0.1136 0.3113 0.4516 -0.1988 112.67 110.77
34 0 0 0 0 0 0 112.67 105.41
35 -0.2454 0 -0.1136 0.3113 0.4516 -0.1988 112.67 110.77
36 -2.7466 1.4877 -0.8955 0.5676 0.945 0.0703 111.27 104.5
37 -1.8234 1.6393 0.5144 -0.7777 0.434 -0.6653 108.73 104.5
38 -1.8234 1.6393 0.5144 -0.7777 0.434 -0.6653 108.73 104.5
39 0 0 0 0 0 0 105.41 113.62
40 0 0 0 0 0 0 107.69 113.62
41 0 0 0 0 0 0 120.05 113.62
42 0 0 0 0 0 0 109.49 113.62
43 0 0 0 0 0 0 112.67 105.41
44 -0.2454 0 -0.1136 0.3113 0.4516 -0.1988 112.67 110.77
45 0 0 0 0 0 0 112.67 107.41
46 0 0 0 0 0 0 112.67 107.41
47 0 0 0 0 0 0 114.3 107.41
48 0 0 0 0 0 0 107.41 109.47
49 0 0 0 0 0 0 107.69 109.47
50 0 0 0 0 0 0 100.32 109.47
51 0 0 0 0 0 0 120.8 109.47
52 0 0 0 0 0 0 107.73 100.32
53 9.1299 -0.4847 0.3582 -1.4946 0.7308 -0.2083 107.73 123.15
54 0 0 0 0 0 0 100 100
55 0 0 0 0 0 0 100 100
56 0 0 0 0 0 0 100 100
57 0 0 0 0 0 0 100 100
58 0 0 0 0 0 0 100 100
59 0 0 0 0 0 0 100 100
60 0 0 0 0 0 0 100 100
61 0 0 0 0 0 0 100 100
62 0 0 0 0 0 0 100 100
63 0 0 0 0 0 0 100 100
64 0 0 0 0 0 0 100 100
65 0 0 0 0 0 0 100 100
66 0 0 0 0 0 0 100 100
67 0 0 0 0 0 0 100 100
68 0 0 0 0 0 0 100 100
69 0 0 0 0 0 0 100 100
70 0 0 0 0 0 0 100 100
71 0 0 0 0 0 0 100 100
72 0 0 0 0 0 0 100 100
73 0 0 0 0 0 0 100 100
74 0 0 0 0 0 0 100 100
75 0 0 0 0 0 0 100 100
76 0 0 0 0 0 0 100 100
77 0 0 0 0 0 0 100 100
78 0 0 0 0 0 0 100 100
79 0 0 0 0 0 0 100 100
80 0 0 0 0 0 0 100 100
81 0 0 0 0 0 0 100 100
82 0 0 0 0 0 0 100 100
83 0 0 0 0 0 0 100 100
84 0 0 0 0 0 0 100 100
85 0 0 0 0 0 0 100 100
86 0 0 0 0 0 0 100 100
87 0 0 0 0 0 0 100 100
88 0 0 0 0 0 0 100 100
89 0 0 0 0 0 0 100 100
90 0 0 0 0 0 0 100 100
91 0 0 0 0 0 0 109.5 109.5
92 0 0 0 0 0 0 109.5 109.5
93 0 0 0 0 0 0 120 109.5
94 0 0 0 0 0 0 120 109.5
95 0 0 0 0 0 0 100 100
96 0 0 0 0 0 0 100 100
97 0 0 0 0 0 0 100 100
98 0 0 0 0 0 0 100 100
99 0 0 0 0 0 0 100 100
100 0 0 0 0 0 0 100 100

Improper Coeffs # class2

1 0 0
2 0 0
3 2.0765 0
4 2.0568 0
5 36 0
6 -5.3119 0
7 0 0
8 0 0
9 0 0
10 0 0
11 0 0
12 0 0
13 0 0
14 0 0
15 0 0
16 0 0
17 0 0
18 0 0
19 0 0
20 51.637 0
21 0 0
22 0 0
23 0 0
24 0 0
25 46.926 0
26 0 0
27 0 0
28 0 0
29 0 0
30 0 0
31 0 0
32 0 0
33 0 0
34 0 0
35 0 0
36 0 0
37 0 0
38 0 0
39 0 0
40 0 0
41 0 0
42 0 0
43 0 0
44 0 0
45 0 0
46 0 0
47 0 0
48 0 0
49 0 0
50 0 0
51 0 0
52 0 0
53 0 0
54 0 0
55 0 0
56 0 0
57 0 0
58 0 0
59 0 0
60 0 0
61 0 0
62 0 0
63 0 0
64 0 0
65 0 0
66 0 0
67 0 0
68 0 0
69 0 0
70 0 0
71 0 0
72 0 0
73 0 0
74 0 0
75 0 0
76 0 0
77 0 0
78 0 0
79 0 0
80 0 0
81 0 0
82 0 0
83 0 0
84 0 0
85 0 0
86 0 0
87 0 0
88 0 0
89 0 0
90 0 0
91 0 0
92 0 0
93 0 0
94 0 0
95 0 0
96 0 0
97 0 0
98 0 0
99 0 0
100 0 0

AngleAngle Coeffs

1 -0.1141 -8.2464 -0.1141 110.06 110.06 107.66
2 -0.3157 -0.3157 -0.3157 107.66 107.66 107.66
3 0 0 0 126.26 117.27 124.88
4 0 0 0 120 120 120
5 0 0 0 120 120 120
6 0 0 0 120 120 120
7 0 0 0 120 120 120
8 0 0 0 120 120 120
9 0 0 0 120 120 120
10 -0.1729 -0.1729 -0.1729 112.67 112.67 112.67
11 0.2738 -0.4825 0.2738 110.77 110.77 107.66
12 3.9177 2.5926 0.1689 110.77 111.27 108.73
13 0.2738 -0.4825 0.2738 110.77 110.77 107.66
14 2.4259 2.4259 2.1283 107.66 108.73 108.73
15 2.4259 2.4259 2.1283 107.66 108.73 108.73
16 -0.3157 -0.3157 -0.3157 107.66 107.66 107.66
17 0 0 0 120 120 120
18 0.2738 -0.4825 0.2738 110.77 110.77 107.66
19 0 0 0 120 120 120
20 0 0 0 120 120 120
21 -0.1729 -0.1729 -0.1729 112.67 112.67 112.67
22 0 0 0 120 120 120
23 0 0 0 120 120 120
24 0 0 0 120 120 120
25 0 0 0 120 120 120
26 -3.3867 -3.4976 -3.3867 107.73 107.73 107.66
27 0 0 0 100 100 100
28 0 0 0 100 100 100
29 0 0 0 100 100 100
30 0 0 0 100 100 100
31 0 0 0 100 100 100
32 0 0 0 100 100 100
33 0 0 0 100 100 100
34 0 0 0 100 100 100
35 0 0 0 100 100 100
36 0 0 0 100 100 100
37 0 0 0 100 100 100
38 0 0 0 100 100 100
39 0 0 0 100 100 100
40 0 0 0 100 100 100
41 0 0 0 100 100 100
42 0 0 0 100 100 100
43 0 0 0 100 100 100
44 0 0 0 100 100 100
45 0 0 0 100 100 100
46 0 0 0 100 100 100
47 0 0 0 100 100 100
48 0 0 0 100 100 100
49 0 0 0 100 100 100
50 0 0 0 100 100 100
51 0 0 0 100 100 100
52 0 0 0 100 100 100
53 0 0 0 100 100 100
54 0 0 0 100 100 100
55 0 0 0 100 100 100
56 0 0 0 100 100 100
57 0 0 0 100 100 100
58 0 0 0 100 100 100
59 0 0 0 100 100 100
60 0 0 0 100 100 100
61 0 0 0 100 100 100
62 0 0 0 100 100 100
63 0 0 0 100 100 100
64 0 0 0 100 100 100
65 0 0 0 100 100 100
66 0 0 0 100 100 100
67 0 0 0 100 100 100
68 0 0 0 100 100 100
69 0 0 0 100 100 100
70 0 0 0 100 100 100
71 0 0 0 100 100 100
72 0 0 0 100 100 100
73 0 0 0 100 100 100
74 0 0 0 100 100 100
75 0 0 0 100 100 100
76 0 0 0 100 100 100
77 0 0 0 100 100 100
78 0 0 0 100 100 100
79 0 0 0 100 100 100
80 0 0 0 100 100 100
81 0 0 0 100 100 100
82 0 0 0 100 100 100
83 0 0 0 100 100 100
84 0 0 0 100 100 100
85 0 0 0 100 100 100
86 0 0 0 100 100 100
87 0 0 0 100 100 100
88 0 0 0 100 100 100
89 0 0 0 100 100 100
90 0 0 0 100 100 100
91 0 0 0 120 120 120
92 0 0 0 120 120 120
93 0 0 0 120 120 120
94 0 0 0 120 120 120
95 0 0 0 120 120 120
96 0 0 0 100 100 100
97 0 0 0 100 100 100
98 0 0 0 100 100 100
99 0 0 0 100 100 100
100 0 0 0 100 100 100

Atoms # full

204 1 3 -5.6000000000000001e-02 5.5199849086928783e+00 6.3898059123421529e+00 3.4459548413008156e+00 0 0 1
202 1 1 1.1000000000000000e-01 4.1660554557769460e+00 6.3179217272498542e+00 4.2307480816317806e+00 0 0 1
223 1 12 -4.6000000000000002e-01 3.0689076656077043e+00 5.6279085869188030e+00 3.5243800764033266e+00 0 0 1
203 1 4 -1.5900000000000000e-01 4.4777234400073036e+00 5.6929967322382646e+00 5.5620553407402129e+00 0 0 1
567 1 11 3.4999999999999998e-01 2.3044391591107245e+00 5.6227937535290273e+00 4.1654391656349912e+00 0 0 1
546 1 10 5.2999999999999999e-02 5.2577266454565965e+00 6.2085865889844181e+00 6.0685764132487394e+00 0 0 1
224 1 8 4.5000000000000001e-01 2.6847807715927390e+00 5.8133355276584302e+00 2.2640047956397926e+00 0 0 1
548 1 10 5.2999999999999999e-02 3.5730442499912782e+00 5.7504040444885689e+00 6.2093244207086453e+00 0 0 1
547 1 10 5.2999999999999999e-02 4.7388770522944661e+00 4.6508336130050028e+00 5.3639867766183125e+00 0 0 1
549 1 10 5.2999999999999999e-02 5.4012681670901630e+00 7.0922501635902551e+00 2.6320483690934138e+00 0 0 1
226 1 7 -1.2680000000000000e-01 1.3511750088398427e+00 5.1793722907000532e+00 2.0785377480403748e+00 0 0 1
225 1 13 -4.5000000000000001e-01 3.3998922977791950e+00 6.4122235311435203e+00 1.4465395443403846e+00 0 0 1
201 1 3 -5.6000000000000001e-02 3.6864191191997220e+00 7.7932612864533208e+00 4.5520586493945023e+00 0 0 1
2710 4 10 1.2680000000000000e-01 5.1903308318339612e+00 6.5120773566028056e+00 8.6680931588592394e+00 0 1 1
2364 4 4 -1.5900000000000000e-01 3.5069311273268715e+00 2.5604189874889198e+00 5.9929971127313735e+00 0 1 1
2363 4 6 -1.2680000000000000e-01 4.7398104402665178e+00 2.0900381527964562e+00 6.7513227938903544e+00 0 1 1
2706 4 10 5.2999999999999999e-02 2.9223748069328384e+00 1.6254480590845348e+00 5.7956936696697312e+00 0 1 1
2362 4 7 -1.2680000000000000e-01 5.0792463590218819e+00 2.4380867067345613e+00 7.9581193816661946e+00 0 1 1
545 1 10 5.2999999999999999e-02 3.1358282264400881e+00 7.7424632434313105e+00 5.4881708796947191e+00 0 0 1
552 1 10 5.2999999999999999e-02 5.2256916123204222e+00 3.4550973836316756e+00 1.2653716632044021e+00 0 0 1
200 1 17 -2.7000000000000002e-01 2.8568030801900126e+00 8.2723519758660071e+00 3.5100406455550628e+00 0 0 1
2705 4 10 1.2680000000000000e-01 5.3757303652706172e+00 1.6022730364420323e+00 6.0637536831539904e+00 0 1 1
2707 4 10 5.2999999999999999e-02 2.7626415099686490e+00 3.2555874720051743e+00 6.4886462684802932e+00 0 1 1
2708 4 10 5.2999999999999999e-02 3.8340970144819355e+00 3.0304601212036384e+00 5.0580411549867028e+00 0 1 1
4443 7 16 -6.3000000000000000e-01 3.9927343647947331e+00 8.4113480175454889e+00 8.0931574957321342e+00 1 0 0
227 1 6 -1.2680000000000000e-01 1.3061666042812006e+00 4.1987805669370655e+00 1.1528367152981085e+00 0 0 1
213 1 14 -2.7200000000000002e-01 4.6517132342548981e+00 1.0639501185381857e+00 7.7858243805093741e-01 0 0 1
2704 4 10 1.2680000000000000e-01 4.3898721811906922e+00 2.9937582969911070e+00 8.5567529320774476e+00 0 1 1
544 1 10 5.2999999999999999e-02 4.6217240660044174e+00 8.3572441536593409e+00 4.6869408452625434e+00 0 0 1
4783 7 10 5.2999999999999999e-02 4.8835121383332358e-01 7.1802145107152135e+00 8.5639157311693825e+00 1 0 0
4441 7 17 -2.7000000000000002e-01 2.1494168848392317e+00 8.7093042914581478e+00 9.2291889211655036e+00 1 0 0
205 1 17 -2.7000000000000002e-01 5.8590677927503680e+00 5.0648727541994960e+00 2.8831319837848777e+00 0 0 1
209 1 3 -5.6000000000000001e-02 6.2362210280471420e+00 3.0741508734614200e+00 1.3132727697611613e+00 0 0 1
551 1 10 5.2999999999999999e-02 6.3556457029964273e+00 2.3851126866976116e+00 2.2001908003623289e+00 0 0 1
550 1 10 5.2999999999999999e-02 6.4317058523370703e+00 6.7091039418934324e+00 4.0590135609533453e+00 0 0 1
568 1 10 1.2680000000000000e-01 5.1094444517811632e-01 5.5774908301930672e+00 2.6155223003594772e+00 0 0 1
198 1 9 1.0700000000000001e+00 3.2122911661173350e+00 9.0532885514712564e+00 2.4752657269352172e+00 0 0 1
3008 5 17 -2.7000000000000002e-01 1.9614717377915898e+01 7.0472892115355714e+00 2.4056246668170922e+00 0 1 0
214 1 8 5.6200000000000006e-01 3.2890010345163407e+00 1.0164236553677091e+00 8.3445616055788574e-01 0 0 1
569 1 10 1.2680000000000000e-01 2.2562083836992985e+00 4.0491658543102158e+00 5.2663664087182471e-01 0 0 1
4509 7 13 -4.5000000000000001e-01 4.6985986912497019e-01 5.8209163040801535e+00 5.3529059588987611e+00 1 0 0
4852 7 10 1.2680000000000000e-01 1.9583100258407213e-01 8.6346471019981053e+00 4.6700881872967388e+00 1 0 0
3007 5 16 -6.3000000000000000e-01 1.7616744350190633e+01 6.2726684927930378e+00 2.5900470983552020e+00 0 1 0
4451 7 16 -6.3000000000000000e-01 9.3385493945472540e+00 9.7031501767496771e+00 6.6930345919018919e+00 1 0 0
2376 4 4 -1.5900000000000000e-01 1.4281379078725230e+01 3.0536368484388038e-01 3.5793185259777780e+00 0 1 1
2295 4 17 -2.7000000000000002e-01 1.6950896826167835e+01 5.6113459295474213e+00 8.8903177000811855e+00 0 1 1